1008
Energy =      0.00000000 au
  C     -1.18014694      3.99220960      4.35711179
  C     -1.18010558      3.00569061      3.37057679
  C      0.00001910      2.69492504      2.69492669
  C      1.18015182      3.37056528      3.00568314
  C      1.18020927      4.35709955      3.99220286
  C      0.00003519      4.66780883      4.66781195
  H     -2.11050504      4.23709784      4.88965885
  H     -2.11062309      2.47325612      3.12584787
  H      2.11066299      3.12582918      2.47324088
  H      2.11057370      4.88963884      4.23708392
  H      0.00004153      5.44534597      5.44534967
  C      0.00001022      1.60598103      1.60598187
  C      0.00000329      0.75660468      0.75660488
  H     -0.00000288      0.00000071      0.00000035
  C     -1.16182022      9.77383666      4.40879701
  C     -1.16176412      8.78732040      3.42225929
  C     -0.00002141      8.52825541      2.69492734
  C      1.16171383      9.25559566      2.95400249
  C      1.16175499     10.24213153      3.94052061
  C     -0.00003634     10.50113807      4.66781371
  H     -2.07768677      9.97796646      4.98208777
  H     -2.07777548      8.21412120      3.21828032
  H      2.07773107      9.05162471      2.38080984
  H      2.07761567     10.81542883      4.14465842
  H     -0.00004223     11.27867476      5.44535188
  C     -0.00001317      7.43931201      1.60598189
  C     -0.00000675      6.58993615      0.75660442
  H     -0.00000102      5.83333261     -0.00000055
  C      0.96765970     16.35262073      3.66337598
  C      0.96762560     15.36609059      2.67685212
  C     -0.00002008     14.36154773      2.69496360
  C     -0.96767216     14.34339277      3.69949951
  C     -0.96771907     15.32988010      4.68606618
  C     -0.00003288     16.33439572      4.66788465
  H      1.73050875     17.14445231      3.64899211
  H      1.73060520     15.38070354      1.88508818
  H     -1.73064672     13.55162334      3.71407818
  H     -1.73057316     15.31546195      5.47789228
  H     -0.00003793     17.11191875      5.44543648
  C     -0.00001301     13.27262347      1.60599902
  C     -0.00000750     12.42326254      0.75660662
  H     -0.00000259     11.66667229     -0.00001164
  C     -1.06506655     21.27147660      4.57779053
  C     -1.06503891     20.28499278      3.59122036
  C      0.00003187     20.19484302      2.69496715
  C      1.06511958     21.09107312      2.78514642
  C      1.06518112     22.07759069      3.77168285
  C      0.00006576     22.16767493      4.66790427
  H     -1.90472123     21.34244111      5.28425133
  H     -1.90484509     19.57862638      3.52041336
  H      1.90491242     21.02028936      2.07876182
  H      1.90484916     22.78403328      3.84267061
  H      0.00007911     22.94519163      5.44546244
  C      0.00001316     19.10592763      1.60599370
  C     -0.00000143     18.25657362      0.75659439
  H     -0.00001442     17.49998953     -0.00003004
  C      1.18902289     27.65913652      4.02349986
  C      1.18894241     26.67270645      3.03687595
  C      0.00008601     26.02801402      2.69516750
  C     -1.18873969     26.36962449      3.33996846
  C     -1.18875875     27.35604187      4.32660507
  C      0.00014742     28.00069201      4.66825852
  H      2.12626468     28.16727795      4.29278210
  H      2.12631422     26.40364955      2.52875781
  H     -2.12613568     25.86159186      3.07083437
  H     -2.12597634     27.62524689      4.83483204
  H      0.00017162     28.77814804      5.44587734
  C      0.00005212     24.93918359      1.60610909
  C      0.00002568     24.08989584      0.75664352
  H      0.00000213     23.33337079     -0.00003993
  C     -0.69257213     32.64155563      4.87446807
  C     -0.69274656     31.65512590      3.88784382
  C      0.00048438     31.86142041      2.69509658
  C      0.69391874     33.05405310      2.48882346
  C      0.69415122     34.04054138      3.47538914
  C      0.00089125     33.83416895      4.66811702
  H     -1.23908476     32.47881659      5.81467165
  H     -1.23950942     30.71505036      4.05078523
  H      1.24052133     33.21701132      1.54865763
  H      1.24082417     34.98065466      3.31266696
  H      0.00105160     34.61165279      5.44570802
  C      0.00025980     30.77255104      1.60607713
  C      0.00008463     29.92323292      0.75664195
  H     -0.00007140     29.16668081     -0.00001443
  C      5.13170578      3.47925731      4.87004575
  C      5.13173814      2.49276036      3.88348870
  C      5.83332785      2.69491836      2.69492799
  C      6.53491457      3.88348159      2.49277439
  C      6.53494094      4.87003675      3.47927322
  C      5.83332186      4.66780099      4.66781439
  H      4.57860348      3.31977930      5.80694885
  H      4.57854720      1.55589355      4.04318190
  H      7.08810786      4.04317826      1.55590956
  H      7.08804088      5.80694184      3.31979868
  H      5.83331950      5.44533768      5.44535256
  C      5.83333116      1.60597498      1.60598252
  C      5.83333373      0.75659913      0.75660505
  H      5.83333603     -0.00000441      0.00000007
  C      4.66109015      9.71214456      4.44474387
  C      4.68625974      8.72005311      3.46413586
  C      5.83244032      8.53161201      2.69178064
  C      6.95350184      9.33515373      2.89990153
  C      6.92842717     10.32727093      3.88048593
  C      5.78220037     10.51565023      4.65280459
  H      3.75749477      9.86059700      5.05352961
  H      3.80231142      8.08677184      3.30033180
  H      7.85724099      9.18687038      2.29120690
  H      7.81222517     10.96064151      4.04445428
  H      5.76240021     11.29758347      5.42566763
  C      5.86017053      7.43651125      1.60938273
  C      5.88180010      6.58233263      0.76511233
  H      5.90106720      5.82145091      0.01305662
  C      6.59801135     16.34925934      3.83575820
  C      6.78601794     15.34121601      2.88972796
  C      5.78720729     14.39159075      2.67441033
  C      4.60036733     14.44986669      3.40501786
  C      4.41226923     15.45787270      4.35106966
  C      5.41113491     16.40746692      4.56632985
  H      7.38544961     17.09779401      4.00540384
  H      7.72176721     15.29557080      2.31394034
  H      3.81276282     13.70140549      3.23552883
  H      3.47663723     15.50370700      4.92694707
  H      5.26292027     17.20194787      5.31195801
  C      5.99478250     13.27891685      1.63015499
  C      6.15669117     12.41103119      0.81563580
  H      6.30091551     11.63793957      0.09008174
  C      6.67702177     22.28606024      3.56326217
  C      6.67697321     21.29951551      2.57675290
  C      5.83337956     20.19491102      2.69495280
  C      4.98979915     20.07670484      3.79956672
  C      4.98977707     21.06319837      4.78612718
  C      5.83340604     22.16777981      4.66785304
  H      7.34207368     23.15677598      3.46997302
  H      7.34212412     21.39301740      1.70607889
  H      4.32463781     19.20603827      3.89306365
  H      4.32473559     20.96990427      5.65685036
  H      5.83341647     22.94531104      5.44539667
  C      5.83336494     19.10597529      1.60599969
  C      5.83335354     18.25660539      0.75661625
  H      5.83334339     17.50000717      0.00000596
  C      6.87217627     27.94395420      3.73871236
  C      6.87214480     26.95740859      2.75220397
  C      5.83330879     26.02826268      2.69493136
  C      4.79446075     26.08552329      3.62406457
  C      4.79440524     27.07203240      4.61060946
  C      5.83328474     28.00114791      4.66781517
  H      7.69114863     28.67634615      3.78375797
  H      7.69126139     26.91255746      2.01989395
  H      3.97535364     25.35320327      3.57920398
  H      3.97542340     27.11706855      5.34299141
  H      5.83327527     28.77868562      5.44535232
  C      5.83332206     24.93931787      1.60598733
  C      5.83333241     24.08994090      0.75661097
  H      5.83334163     23.33333637      0.00000699
  C      4.72408347     33.00281685      4.51311732
  C      4.72414229     32.01631480      3.52656538
  C      5.83329657     31.86155388      2.69494145
  C      6.94243848     32.69318836      2.84973445
  C      6.94247252     33.67971875      3.83625806
  C      5.83327180     33.83441685      4.66784751
  H      3.84967529     33.12471793      5.16862726
  H      3.84960000     31.36088111      3.40481137
  H      7.81699052     32.57145964      2.19430909
  H      7.81687094     34.33523700      3.95818444
  H      5.83326204     34.61194579      5.44539343
  C      5.83331025     30.77262135      1.60598513
  C      5.83332091     29.92325396      0.75659919
  H      5.83333041     29.16665797     -0.00001333
  C     10.82280928      3.56339706      4.78591581
  C     10.82284442      2.57689319      3.79936570
  C     11.66666750      2.69493043      2.69491907
  C     12.51049077      3.79937631      2.57687614
  C     12.51052628      4.78593137      3.56337508
  C     11.66666787      4.66781988      4.66779865
  H     10.15757649      3.47023614      5.65650710
  H     10.15750203      1.70635168      3.89273886
  H     13.17583301      3.89274499      1.70633404
  H     13.17575921      5.65652206      3.47020968
  H     11.66666801      5.44535926      5.44533413
  C     11.66666730      1.60598329      1.60597737
  C     11.66666714      0.75660449      0.75660283
  H     11.66666700     -0.00000165      0.00000047
  C     10.38115938      9.63253384      4.41247745
  C     10.50739408      8.63293524      3.44741866
  C     11.67134630      8.54351286      2.68387992
  C     12.70912537      9.45358384      2.88527001
  C     12.58298285     10.45321680      3.85030526
  C     11.41899076     10.54257270      4.61380818
  H      9.46356444      9.70292351      5.01431433
  H      9.68908223      7.91565948      3.28891704
  H     13.62684667      9.38337757      2.28352234
  H     13.40113546     11.17056951      4.00896902
  H     11.31953442     11.33042614      5.37441603
  C     11.81063532      7.44012083      1.61864544
  C     11.91928076      6.57947503      0.78776253
  H     12.01605950      5.81283250      0.04763206
  C     12.45724602     16.42584226      3.78536969
  C     12.66138767     15.46516090      2.79446679
  C     11.80291618     14.37001404      2.69724232
  C     10.74028784     14.23540513      3.59081604
  C     10.53606578     15.19603501      4.58175228
  C     11.39458755     16.29116024      4.67891122
  H     13.13404882     17.28910479      3.86191112
  H     13.49919299     15.57158828      2.09019624
  H     10.06333386     13.37218795      3.51445531
  H      9.69835845     15.08981249      5.28610023
  H     11.23366034     17.04830697      5.45991069
  C     12.02829540     13.30962687      1.60344930
  C     12.20409120     12.48252486      0.75029074
  H     12.36068586     11.74576233     -0.00968235
  C     10.52463417     21.39629439      4.45303103
  C     10.52465761     20.40978569      3.46648574
  C     11.66671863     20.19491052      2.69493027
  C     12.80880402     20.96643487      2.90978762
  C     12.80887620     21.95296688      3.89630960
  C     11.66676737     22.16778175      4.66782807
  H      9.62428379     21.56558690      5.06118565
  H      9.62413988     19.80174797      3.29737188
  H     13.70930255     20.79730694      2.30172537
  H     13.70924580     22.56109697      4.06558805
  H     11.66678658     22.94531395      5.44537074
  C     11.66669172     19.10597342      1.60597852
  C     11.66667074     18.25660248      0.75659614
  H     11.66665204     17.50000331     -0.00001321
  C     10.78164691     26.92671739      4.75597547
  C     10.78174159     25.94013686      3.76950201
  C     11.66652648     26.02845912      2.69473346
  C     12.55125372     27.10326541      2.60629321
  C     12.55123312     28.08989463      3.59271798
  C     11.66641120     28.00149937      4.66746223
  H     10.08412165     26.85698244      5.60316988
  H     10.08414699     25.09296577      3.83953386
  H     13.24889374     27.17320428      1.75915183
  H     13.24871295     28.93711878      3.52289003
  H     11.66636577     28.77909818      5.44493828
  C     11.66659010     24.93942875      1.60587500
  C     11.66663973     24.08998503      0.75656539
  H     11.66668394     23.33332106      0.00002086
  C     10.49675944     33.12833916      4.38763505
  C     10.49680798     32.14182497      3.40109525
  C     11.66666582     31.86158697      2.69492825
  C     12.83652410     32.56775124      2.97517131
  C     12.83657351     33.55428326      3.96169329
  C     11.66666669     33.83446370      4.66782055
  H      9.57449526     33.34916083      4.94424030
  H      9.57439172     31.58532273      3.18042569
  H     13.75894002     32.34708567      2.41866692
  H     13.75883802     34.11088636      4.18251894
  H     11.66666703     34.61199806      5.44536105
  C     11.66666534     30.77264685      1.60597953
  C     11.66666497     29.92327353      0.75659951
  H     11.66666464     29.16667226     -0.00000773
  C     16.48835547      3.70778612      4.64153369
  C     16.48839882      2.72127219      3.65499363
  C     17.49999499      2.69494029      2.69491427
  C     18.51159014      3.65502103      2.72123460
  C     18.51163148      4.64157405      3.70773558
  C     17.49999297      4.66783776      4.66778583
  H     15.69085780      3.72843945      5.39831221
  H     15.69077074      1.96456050      3.63453845
  H     19.30921903      3.63455673      1.96452400
  H     19.30912835      5.39835365      3.72837979
  H     17.49999217      5.44538029      5.44531816
  C     17.49999611      1.60598872      1.60597700
  C     17.49999698      0.75660647      0.75660591
  H     17.49999775     -0.00000275      0.00000662
  C     18.59159785     10.35381013      3.91963841
  C     18.66141478      9.39093761      2.91242784
  C     17.59266529      8.51860651      2.70606527
  C     16.45406121      8.60901364      3.50680234
  C     16.38415187      9.57185343      4.51403779
  C     17.45295102     10.44415341      4.72033826
  H     19.43416015     11.04141434      4.08221775
  H     19.55916645      9.31994378      2.28136257
  H     15.61134666      7.92148411      3.34439273
  H     15.48653427      9.64302336      5.14519569
  H     17.39788795     11.20303452      5.51418738
  C     17.66978134      7.45579034      1.59427626
  C     17.72993187      6.62679371      0.72708081
  H     17.78351251      5.88834350     -0.04539599
  C     18.67297372     16.12673317      3.96943550
  C     18.72542644     15.17756902      2.94825620
  C     17.63179861     14.34401795      2.71385626
  C     16.48567761     14.45949975      3.50052211
  C     16.43313113     15.40863385      4.52172452
  C     17.52680843     16.24215314      4.75606254
  H     19.53514714     16.78376638      4.15411675
  H     19.62911034     15.08680003      2.32829011
  H     15.62335209     13.80254358      3.31600966
  H     15.52958565     15.49957301      5.14178779
  H     17.48543054     16.99023096      5.56092051
  C     17.68974852     13.29633183      1.58664931
  C     17.73494944     12.47913664      0.70742788
  H     17.77521334     11.75119886     -0.07576138
  C     18.44405079     22.20761779      3.64169925
  C     18.44399053     21.22109240      2.65517064
  C     17.50003827     20.19486559      2.69498528
  C     16.55610675     20.15502102      3.72123001
  C     16.55608798     21.14150178      4.70780325
  C     17.50007976     22.16770226      4.66791764
  H     19.18822100     23.01654403      3.61020557
  H     19.18826683     21.25280728      1.84628961
  H     15.81181411     19.34615411      3.75292131
  H     15.81193413     21.10998451      5.51674361
  H     17.50009611     22.94522083      5.44547393
  C     17.50001537     19.10594758      1.60601445
  C     17.49999751     18.25659151      0.75661719
  H     17.49998159     17.50000560     -0.00000542
  C     16.33316205     27.28676522      4.39588124
  C     16.33320842     26.30025386      3.40933860
  C     17.50000776     26.02824434      2.69494189
  C     18.66680957     26.74263460      2.96695773
  C     18.66686090     27.72916447      3.95348185
  C     17.50001271     28.00111609      4.66783917
  H     15.41330906     27.50109991      4.95897443
  H     15.41320213     25.73726554      3.19515609
  H     19.58681391     26.52845707      2.40396432
  H     19.58671584     28.29225257      4.16782152
  H     17.50001467     28.77864849      5.44538164
  C     17.50000502     24.93930697      1.60599042
  C     17.50000289     24.08993580      0.75660825
  H     17.50000099     23.33333644     -0.00000090
  C     18.34186544     33.95399865      3.56196490
  C     18.34182138     32.96744123      2.57546832
  C     17.50002270     31.86160214      2.69491469
  C     16.65823283     31.74217400      3.80076246
  C     16.65820641     32.72868012      4.78731033
  C     17.50004033     33.83449620      4.66778966
  H     19.00550228     34.82568768      3.46769308
  H     19.00556047     33.06190661      1.70382145
  H     15.99448680     30.87053397      3.89524221
  H     15.99457652     32.63442267      5.65900621
  H     17.50004728     34.61203740      5.44532333
  C     17.50001297     30.77265245      1.60597554
  C     17.50000538     29.92327167      0.75660298
  H     17.49999862     29.16666376      0.00000239
  C     22.48732584      3.56496038      4.78436615
  C     22.48737958      2.57842645      3.79784608
  C     23.33329500      2.69499678      2.69484517
  C     24.17919209      3.79800573      2.57821798
  C     24.17920918      4.78459071      3.56468699
  C     23.33325834      4.66794621      4.66766478
  H     21.82044354      3.47295590      5.65381769
  H     21.82040200      1.70901795      3.89010294
  H     24.84618411      3.89021778      1.70881580
  H     24.84607703      5.65404860      3.47263769
  H     23.33324390      5.44550922      5.44517663
  C     23.33331523      1.60601653      1.60593658
  C     23.33333101      0.75661192      0.75658786
  H     23.33334507     -0.00001722      0.00000849
  C     24.48343609     10.26933803      3.93063001
  C     24.49546955      9.28913910      2.93788820
  C     23.35336133      8.52498133      2.69825461
  C     22.19917307      8.74089096      3.45125197
  C     22.18704348      9.72106694      4.44401527
  C     23.32920036     10.48518785      4.68358916
  H     25.38382498     10.87166131      4.11944029
  H     25.40552658      9.11919360      2.34446063
  H     21.29863367      8.13865978      3.26260427
  H     21.27713380      9.89117564      5.03753883
  H     23.31967823     11.25772872      5.46603330
  C     23.36669711      7.44303460      1.60243832
  C     23.37709902      6.59911614      0.74770159
  H     23.38636478      5.84737392     -0.01367727
  C     24.17618969     16.45337567      3.56255221
  C     24.17613548     15.46680503      2.57606886
  C     23.33337712     14.36162842      2.69487784
  C     22.49063769     14.24287602      3.80007495
  C     22.49062133     15.22939543      4.78660953
  C     23.33341497     16.33454900      4.66772629
  H     24.84058310     17.32454244      3.46878289
  H     24.84062329     15.56073760      1.70493502
  H     21.82613497     13.37175836      3.89405212
  H     21.82624284     15.13567071      5.65779247
  H     23.33342989     17.11210064      5.44524951
  C     23.33335623     13.27266410      1.60595332
  C     23.33333994     12.42327191      0.75659218
  H     23.33332542     11.66665382      0.00000175
  C     22.13045727     21.59556443      4.25374924
  C     22.13051100     20.60902939      3.26723029
  C     23.33332202     20.19495366      2.69490216
  C     24.53612965     20.76729545      3.10896884
  C     24.53617662     21.75383711      4.09548117
  C     23.33331526     22.16786088      4.66776397
  H     21.18221427     21.92189784      4.70484185
  H     21.18211465     20.15804424      2.94104275
  H     25.48452867     20.44110077      2.65799445
  H     25.48441696     22.20494048      4.42180745
  H     23.33331259     22.94540726      5.44529245
  C     23.33332575     19.10599670      1.60597027
  C     23.33332866     18.25661026      0.75660338
  H     23.33333126     17.49999730      0.00000783
  C     24.16494932     28.12717843      3.55564686
  C     24.16501510     27.14068361      2.56908769
  C     23.33308363     26.02812449      2.69508286
  C     22.50105157     25.90191344      3.80754228
  C     22.50091614     26.88835640      4.79415329
  C     23.33288244     28.00089281      4.66808355
  H     24.82080730     29.00416525      3.45621226
  H     24.82106027     27.24049719      1.69222764
  H     21.84508566     25.02497474      3.90718568
  H     21.84497887     26.78875162      5.67106150
  H     23.33280314     28.77838444      5.44566677
  C     23.33319469     24.93924420      1.60607431
  C     23.33328131     24.08991756      0.75664762
  H     23.33335847     23.33335787     -0.00000119
  C     22.12831114     33.28149831      4.23453150
  C     22.12833960     32.29503697      3.24793885
  C     23.33338906     31.86145154      2.69509889
  C     24.53846050     32.41420911      3.12872826
  C     24.53853293     33.40067543      4.11531593
  C     23.33343302     33.83420972      4.66810973
  H     21.17830345     33.62321231      4.67026048
  H     21.17815828     31.85949366      2.90632643
  H     25.48862450     32.07263130      2.69312003
  H     25.48855795     33.83633948      4.45706456
  H     23.33345035     34.61169737      5.44569694
  C     23.33336479     30.77257684      1.60608474
  C     23.33334586     29.92325457      0.75665369
  H     23.33332900     29.16669876      0.00000099
  C     30.14289507      4.67783221      3.67146751
  C     30.14286167      3.69127126      2.68497447
  C     29.16663312      2.69495204      2.69489329
  C     28.19039711      2.68505188      3.69120537
  C     28.19034878      3.67157071      4.67774054
  C     29.16661819      4.66786234      4.66775201
  H     30.91251047      5.46318063      3.66354238
  H     30.91260958      3.69937542      1.89969489
  H     27.42065508      1.89976668      3.69932424
  H     27.42072749      3.66366028      5.46308334
  H     29.16661231      5.44540993      5.44527928
  C     29.16664136      1.60599338      1.60596310
  C     29.16664779      0.75660561      0.75659753
  H     29.16665352     -0.00000853      0.00000317
  C     29.97044721     10.64585234      3.53673728
  C     29.97041702      9.65924600      2.55028963
  C     29.16665950      8.52837961      2.69481509
  C     28.36289851      8.38397204      3.82569407
  C     28.36286140      9.37052500      4.81219511
  C     29.16665257     10.50136942      4.66759431
  H     30.60409409     11.53727178      3.42269422
  H     30.60417089      9.77340731      1.65890599
  H     27.72914738      7.49259837      3.93994830
  H     27.72921179      9.25657487      5.70362450
  H     29.16664984     11.27894835      5.44509024
  C     29.16666332      7.43937708      1.60592878
  C     29.16666631      6.58995508      0.75659745
  H     29.16666896      5.83331045      0.00003357
  C     28.36654360     15.20051680      4.81518051
  C     28.36661825     14.21416399      3.82847935
  C     29.16658953     14.36120660      2.69525521
  C     29.96651964     15.49450801      2.54858457
  C     29.96651196     16.48091442      3.53523215
  C     29.16650720     16.33379637      4.66843443
  H     27.73588164     15.08448934      5.70845870
  H     27.73588497     13.32087028      3.94442509
  H     30.59728536     15.61074696      1.65535186
  H     30.59714148     17.37425355      3.41949792
  H     29.16647475     17.11121763      5.44608801
  C     29.16663497     13.27242487      1.60614812
  C     29.16667042     12.42317511      0.75664457
  H     29.16670199     11.66668389     -0.00007271
  C     29.99889726     22.29398515      3.55525909
  C     29.99881429     21.30741806      2.56877219
  C     29.16678099     20.19494934      2.69489312
  C     28.33479582     20.06890096      3.80740605
  C     28.33480912     21.05541620      4.79394480
  C     29.16687725     22.16786219      4.66774930
  H     30.65483550     23.17090069      3.45572535
  H     30.65482253     21.40710341      1.69186992
  H     27.67874966     19.19203357      3.90714859
  H     27.67890881     20.95593965      5.67089521
  H     29.16691519     22.94541079      5.44527556
  C     29.16672786     19.10598928      1.60596433
  C     29.16668642     18.25660042      0.75659987
  H     29.16664951     17.49998530      0.00000648
  C     30.37158370     27.56719741      4.11552463
  C     30.37159132     26.58067027      3.12899776
  C     29.16651825     26.02825969      2.69493097
  C     27.96138712     26.46225292      3.24727268
  C     27.96127861     27.44877510      4.23380450
  C     29.16640213     28.00113952      4.66782017
  H     31.32161001     28.00258790      4.45761811
  H     31.32181970     26.23877094      2.69378237
  H     27.01120449     26.02698323      2.90531535
  H     27.01120654     27.79081059      4.66914070
  H     29.16635636     28.77867510      5.44535945
  C     29.16658235     24.93931785      1.60598396
  C     29.16663234     24.08994320      0.75660528
  H     29.16667688     23.33334075     -0.00000077
  C     28.38262009     32.69126947      4.82463733
  C     28.38269415     31.70478302      3.83806978
  C     29.16657140     31.86155131      2.69494569
  C     29.95040742     33.00471241      2.53824111
  C     29.95039899     33.99125328      3.52475424
  C     29.16648892     33.83440914      4.66785689
  H     27.76464593     32.56757471      5.72572022
  H     27.76465082     30.80371512      3.96192710
  H     30.56848324     33.12861995      1.63720240
  H     30.56834063     34.89236535      3.40110970
  H     29.16645641     34.61193605      5.44540484
  C     29.16661693     30.77262162      1.60598654
  C     29.16665245     29.92325644      0.75659839
  H     29.16668408     29.16666242     -0.00001610
  C      0.93552586      4.71509320     15.63421581
  C      0.93550128      3.72853487     14.64772014
  C     -0.00003294      2.69493837     14.69490619
  C     -0.93558175      2.64775674     15.72848969
  C     -0.93563550      3.63426982     16.71503060
  C     -0.00006212      4.66784030     16.66777328
  H      1.67305966      5.52982939     15.59691084
  H      1.67316793      3.76603493     13.83305259
  H     -1.67323690      1.83307893     15.76599323
  H     -1.67318080      3.59696834     17.52975654
  H     -0.00007361      5.44538460     17.44530385
  C     -0.00001683      1.60598433     13.60597138
  C     -0.00000427      0.75660016     12.75660222
  H      0.00000692     -0.00001078     12.00000465
  C      0.73227117     10.68719002     15.49556299
  C      0.73226580      9.70068829     14.50901072
  C     -0.00005736      8.52814314     14.69505697
  C     -0.73240580      8.34195047     15.86756309
  C     -0.73246174      9.32839532     16.85417222
  C     -0.00010792     10.50092026     16.66804889
  H      1.30960236     11.61146718     15.34878677
  H      1.30971190      9.84779653     13.58480473
  H     -1.30983199      7.41771366     16.01455590
  H     -1.30981286      9.18150367     17.77841859
  H     -0.00012785     11.27841536     17.44562864
  C     -0.00002945      7.43925800     13.60605327
  C     -0.00000769      6.58992758     12.75663037
  H      0.00001170      5.83336451     11.99998493
  C      0.71626813     16.52931949     15.48661421
  C      0.71624949     15.54272270     14.50015701
  C     -0.00002699     14.36169590     14.69482658
  C     -0.71631480     14.16711625     15.87586133
  C     -0.71635612     15.15365546     16.86237612
  C     -0.00004966     16.33466240     16.66762911
  H      1.28094882     17.46028319     15.33303975
  H      1.28103202     15.69644396     13.56922628
  H     -1.28108840     13.23619181     16.02965347
  H     -1.28104575     15.00015189     17.79334610
  H     -0.00005860     17.11223214     17.44513422
  C     -0.00001447     13.27270622     13.60592741
  C     -0.00000471     12.42329426     12.75658605
  H      0.00000398     11.66665856     12.00001324
  C      1.09994771     22.02885681     15.82020907
  C      1.09978570     21.04221253     14.83379938
  C      0.00028254     20.19515690     14.69465163
  C     -1.09910466     20.33460991     15.54180757
  C     -1.09903471     21.32122457     16.52824690
  C      0.00051448     22.16824635     16.66733119
  H      1.96674736     22.69653240     15.92980143
  H      1.96663658     20.93255392     14.16612723
  H     -1.96604691     19.66701691     15.43238959
  H     -1.96574296     21.43105756     17.19600160
  H      0.00060589     22.94586454     17.44478784
  C      0.00015451     19.10609937     13.60582034
  C      0.00005466     18.25663448     12.75653192
  H     -0.00003429     17.49995163     12.00000626
  C      0.76200531     28.17081821     15.51183056
  C      0.76197311     27.18427072     14.52532405
  C     -0.00000232     26.02824388     14.69493520
  C     -0.76197744     25.85861596     15.85095978
  C     -0.76200903     26.84510795     16.83752178