1008
Energy =      0.00000000 au
  C      0.81193825      4.80702105      3.54233699
  C      0.81191635      3.82050483      2.55579921
  C     -0.00002810      2.69483188      2.69500828
  C     -0.81198465      2.55552786      3.82066076
  C     -0.81203073      3.54199112      4.80725148
  C     -0.00005228      4.66764190      4.66796729
  H      1.45203934      5.69434623      3.43248513
  H      1.45213229      3.93064205      1.66853662
  H     -1.45219106      1.66824910      3.93072312
  H     -1.45214135      3.43206442      5.69456052
  H     -0.00006181      5.44514997      5.44553408
  C     -0.00001476      1.60592858      1.60602274
  C     -0.00000435      0.75658399      0.75661400
  H      0.00000493      0.00000830     -0.00001882
  C      0.85198997     10.44498889      3.88394285
  C      1.00473552      9.43884447      2.92957749
  C     -0.04141361      8.55099267      2.67845261
  C     -1.24033657      8.66914594      3.38158566
  C     -1.39317611      9.67525814      4.33596994
  C     -0.34697245     10.56307644      4.58703830
  H      1.67674402     11.14482431      4.08181646
  H      1.95002270      9.34598628      2.37545561
  H     -2.06525613      7.96939164      3.18386565
  H     -2.33833758      9.76829728      4.89018680
  H     -0.46739684     11.35606277      5.33923479
  C      0.12724126      7.44041200      1.62499828
  C      0.25879206      6.57415907      0.80330389
  H      0.37597434      5.80252184      0.07135833
  C      0.98880324     16.10634820      4.02390223
  C      1.09509372     15.09960996      3.06387542
  C     -0.03593333     14.37838637      2.68127001
  C     -1.27328741     14.66376860      3.25857792
  C     -1.37967703     15.67048859      4.21861289
  C     -0.24859516     16.39167165      4.60116687
  H      1.88046632     16.67482122      4.32542866
  H      2.07069731     14.87489435      2.60896654
  H     -2.16511794     14.09539841      2.95718914
  H     -2.35514087     15.89536357      4.67363416
  H     -0.33240774     17.18513151      5.35782123
  C      0.08144653     13.26714253      1.62157242
  C      0.17300282     12.40037231      0.79500828
  H      0.25455896     11.62827430      0.05872487
  C     -1.14266575     21.39748569      4.45183437
  C     -1.14262442     20.41096988      3.46529618
  C      0.00001508     20.19492828      2.69492385
  C      1.14266109     20.96529326      2.91095727
  C      1.14271543     21.95183227      3.89747225
  C      0.00002809     22.16781362      4.66780754
  H     -2.04347219     21.56769775      5.05905626
  H     -2.04358420     19.80384631      3.29525499
  H      2.04361574     20.79524562      2.30382790
  H      2.04352700     22.55904836      4.06767787
  H      0.00003322     22.94535137      5.44534465
  C      0.00000790     19.10598341      1.60597988
  C      0.00000229     18.25660639      0.75660357
  H     -0.00000270     17.50000182     -0.00000037
  C     -0.88423796     26.92615417      4.75657585
  C     -0.88425169     25.93964885      3.77002718
  C      0.00011460     26.02828148      2.69493971
  C      0.88453165     27.10332296      2.60625573
  C      0.88461942     28.08987700      3.59275569
  C      0.00021610     28.00117136      4.66781886
  H     -1.58143323     26.85617455      5.60402167
  H     -1.58160167     25.09229228      3.84025123
  H      1.58184164     27.17350653      1.75886291
  H      1.58185470     28.93728656      3.52273558
  H      0.00025611     28.77871091      5.44535417
  C      0.00005858     24.93933409      1.60599826
  C      0.00001488     24.08995512      0.75662390
  H     -0.00002405     23.33334880      0.00002171
  C      1.15517297     33.59114857      3.92487702
  C      1.15513429     32.60464138      2.93833021
  C     -0.00000614     31.86152673      2.69501203
  C     -1.15515625     32.10478797      3.43813029
  C     -1.15521428     33.09127423      4.42469802
  C     -0.00002549     33.83435070      4.66795709
  H      2.06583459     34.17688172      4.11659273
  H      2.06595337     32.41313144      2.35269030
  H     -2.06596770     31.51915087      3.24657547
  H     -2.06588353     33.28294506      5.01043400
  H     -0.00003312     34.61186427      5.44551838
  C      0.00000454     30.77261572      1.60603420
  C      0.00001288     29.92326512      0.75663147
  H      0.00002030     29.16668408      0.00000400
  C      5.14268209      3.47384383      4.87546905
  C      5.14270745      2.48733785      3.88892104
  C      5.83334347      2.69494204      2.69489636
  C      6.52398304      3.88896073      2.48726953
  C      6.52401551      4.87552539      3.47375886
  C      5.83335057      4.66784321      4.66776423
  H      4.59821520      3.31007229      5.81667971
  H      4.59814819      1.54616949      4.05292981
  H      7.06853952      4.05295165      1.54609644
  H      7.06848519      5.81673132      3.30996947
  H      5.83335337      5.44538720      5.44529510
  C      5.83333956      1.60598843      1.60596113
  C      5.83333650      0.75660459      0.75659164
  H      5.83333378     -0.00000605     -0.00000623
  C      4.76725763      9.64618655      4.47457633
  C      4.80415875      8.69245147      3.45698174
  C      5.96944453      8.51233138      2.71170438
  C      7.09788172      9.28584197      2.98388707
  C      7.06107662     10.23960189      4.00146186
  C      5.89574465     10.41966253      4.74669894
  H      3.84860181      9.78808319      5.06201113
  H      3.91439128      8.08283773      3.24267705
  H      8.01668150      9.14410802      2.39655411
  H      7.95069053     10.84930135      4.21592975
  H      5.86669864     11.17136459      5.54871468
  C      6.01012358      7.45956950      1.58847798
  C      6.04185324      6.63841522      0.71236137
  H      6.07011726      5.90695078     -0.06806219
  C      4.78447098     15.33295723      4.58415378
  C      4.85675680     14.36992088      3.57727404
  C      5.94583809     14.35222291      2.70586066
  C      6.96268648     15.29746273      2.84118829
  C      6.89048882     16.26053790      3.84803721
  C      5.80136702     16.27816897      4.71941634
  H      3.92589520     15.34680646      5.27102978
  H      4.05496479     13.62490395      3.47087434
  H      7.82138943     15.28379907      2.15439567
  H      7.69213484     17.00562010      3.95461576
  H      5.74442923     17.03720740      5.51298277
  C      6.02557969     13.28918642      1.59446757
  C      6.08777814     12.46001794      0.72758094
  H      6.14318302     11.72141465     -0.04462077
  C      7.01154746     21.86341473      3.98589192
  C      7.01149082     20.87688497      2.99936769
  C      5.83335131     20.19491564      2.69493762
  C      4.65521911     20.49934734      3.37691885
  C      4.65517711     21.48586130      4.36345889
  C      5.83336594     22.16778989      4.66783240
  H      7.94034053     22.40094361      4.22578554
  H      7.94043095     20.63714302      2.46193342
  H      3.72627322     19.96192246      3.13717819
  H      3.72638980     21.72575621      4.90099714
  H      5.83337170     22.94532327      5.44537388
  C      5.83334324     19.10597689      1.60598753
  C      5.83333694     18.25660464      0.75660644
  H      5.83333133     17.50000432     -0.00000176
  C      4.55144582     27.10023708      4.44930925
  C      4.68157678     26.09589042      3.48971311
  C      5.81712263     26.04665590      2.68108209
  C      6.82259827     27.00166398      2.83191592
  C      6.69255694     28.00604855      3.79148453
  C      5.55697269     28.05521459      4.60008199
  H      3.65624562     27.13894391      5.08669547
  H      3.88873454     25.34318383      3.37107271
  H      7.71792039     26.96314669      2.19461200
  H      7.48524338     28.75882719      3.91029255
  H      5.45444448     28.84681164      5.35638285
  C      5.96071382     24.93802092      1.62187958
  C      6.07271495     24.07328561      0.79570161
  H      6.17248286     23.30300026      0.05976218
  C      4.78086768     32.92198601      4.59400215
  C      4.78091085     31.93547546      3.60745871
  C      5.83333757     31.86159833      2.69492777
  C      6.88576518     32.77412849      2.76880189
  C      6.88581012     33.76067415      3.75531023
  C      5.83333934     33.83448507      4.66781007
  H      3.95118101     32.98012189      5.31329560
  H      3.95108697     31.21625671      3.54950807
  H      7.71558836     32.71617548      2.04958253
  H      7.71549749     34.47996698      3.81344373
  H      5.83334004     34.61202338      5.44534662
  C      5.83333659     30.77265268      1.60598458
  C      5.83333583     29.92327506      0.75660887
  H      5.83333515     29.16666995      0.00000547
  C     10.45864936      4.16255012      4.18672266
  C     10.45871893      3.17606405      3.20015474
  C     11.66661473      2.69482363      2.69501324
  C     12.87449153      3.19994895      3.17631833
  C     12.87452309      4.18643602      4.16288526
  C     11.66657673      4.66762730      4.66797860
  H      9.50639775      4.54183321      4.58484829
  H      9.50632562      2.77807809      2.82095070
  H     13.82689982      2.82079588      2.77831964
  H     13.82675973      4.58454891      4.54221932
  H     11.66656175      5.44513287      5.44554789
  C     11.66663571      1.60592383      1.60602420
  C     11.66665208      0.75658197      0.75661273
  H     11.66666665      0.00000872     -0.00002253
  C     10.82761380      9.39338356      4.78925185
  C     10.82765016      8.40689237      3.80268904
  C     11.66667181      8.52824069      2.69494819
  C     12.50569221      9.63598508      2.57362358
  C     12.50572609     10.62252772      3.56013494
  C     11.66666932     10.50110503      4.66785287
  H     10.16616624      9.29761234      5.66244016
  H     10.16609476      7.53375003      3.89864976
  H     13.16724860      9.73196449      1.70048404
  H     13.16717266     11.49571882      3.46438241
  H     11.66666834     11.27863451      5.44539825
  C     11.66667319      7.43930740      1.60599263
  C     11.66667426      6.58993942      0.75660728
  H     11.66667521      5.83334290     -0.00000471
  C     10.49328281     15.62909299      4.37320750
  C     10.50290061     14.64818122      3.38114367
  C     11.68402319     14.35875776      2.69780183
  C     12.85557838     15.05013433      3.00639448
  C     12.84605906     16.03106292      3.99844262
  C     11.66488771     16.32042960      4.68174338
  H      9.56213904     15.85715666      4.91181780
  H      9.57914347     14.10333717      3.13812255
  H     13.78687348     14.82222446      2.46788906
  H     13.76966237     16.57600865      4.24161724
  H     11.65734619     17.09354798      5.46363851
  C     11.69458512     13.27600223      1.60275443
  C     11.70282342     12.43145291      0.74861743
  H     11.71016191     11.67914873     -0.01222721
  C     10.59997479     21.27359899      4.57568681
  C     10.60003199     20.28708739      3.58914441
  C     11.66663230     20.19492047      2.69491760
  C     12.73322006     21.08916111      2.78709557
  C     12.73325215     22.07570629      3.77360439
  C     11.66660719     22.16780777      4.66779934
  H      9.75911429     21.34615373      5.28055008
  H      9.75904304     19.58228966      3.51676145
  H     13.57421890     21.01678687      2.08230875
  H     13.57410276     22.78058048      3.84616785
  H     11.66659729     22.94534630      5.44533567
  C     11.66664616     19.10597451      1.60597472
  C     11.66665698     18.25659665      0.75659925
  H     11.66666661     17.49999133     -0.00000394
  C     12.89823327     27.65851597      4.06776237
  C     12.92730638     26.69937495      3.05500657
  C     11.76229237     26.01461073      2.70915565
  C     10.56815944     26.28886145      3.37594319
  C     10.53898757     27.24798529      4.38871242
  C     11.70405240     27.93271081      4.73450669
  H     13.81668189     28.19825115      4.34030755
  H     13.86885405     26.48342199      2.52956023
  H      9.64955402     25.74922456      3.10355072
  H      9.59758911     27.46408978      4.91426984
  H     11.68109933     28.68865703      5.53272180
  C     11.79443824     24.95590488      1.59125204
  C     11.81951202     24.13011430      0.71928721
  H     11.84184714     23.39451996     -0.05743804
  C     12.81269581     33.56429974      3.97002545
  C     12.82969724     32.57362022      2.98781566
  C     11.66565388     31.86392265      2.69268018
  C     10.48456209     32.14477428      3.37964239
  C     10.46746248     33.13543586      4.36186859
  C     11.63155577     33.84509355      4.65694743
  H     13.73037793     34.12368789      4.20259209
  H     13.76096581     32.35247206      2.44645266
  H      9.56672565     31.58548734      3.14722908
  H      9.53634378     33.35674084      4.90333409
  H     11.61811730     34.62589675      5.43108869
  C     11.68447452     30.77040451      1.60849211
  C     11.69915461     29.91746035      0.76282540
  H     11.71223129     29.15767825      0.00952588
  C     16.52943486      3.66610696      4.68323045
  C     16.52948644      2.67957382      3.69670960
  C     17.49997356      2.69499320      2.69486654
  C     18.47044973      3.69684618      2.67940220
  C     18.47047941      4.68342191      3.66588046
  C     17.49995166      4.66793258      4.66769618
  H     15.76434575      3.65384542      5.47293364
  H     15.76428007      1.88992533      3.70920103
  H     19.23566473      3.70930217      1.88976151
  H     19.23555990      5.47313290      3.65358349
  H     17.49994303      5.44549164      5.44521198
  C     17.49998565      1.60601849      1.60595240
  C     17.49999507      0.75661820      0.75659936
  H     17.50000347     -0.00000710      0.00001615
  C     16.72307653      9.35481983      4.82796635
  C     16.72309090      8.36810000      3.84163223
  C     17.50006050      8.52868949      2.69433027
  C     18.27704827      9.67590533      2.53321424
  C     18.27709896     10.66267990      3.51949360
  C     17.50009682     10.50201438      4.66677431
  H     16.11054806      9.22811257      5.73234291
  H     16.11044733      7.46383506      3.96896783
  H     18.88967752      9.80282590      1.62888127
  H     18.88964174     11.56698852      3.39237130
  H     17.50011114     11.27972537      5.44413814
  C     17.50004046      7.43950200      1.60562897
  C     17.50002482      6.58993574      0.75644194
  H     17.50001089      5.83316260      0.00000660
  C     16.43885409     15.43277840      4.58318380
  C     16.43889988     14.44633323      3.59657498
  C     17.49998712     14.36146035      2.69509675
  C     18.56107300     15.26292890      2.78008941
  C     18.56111605     16.24940826      3.76666405
  C     17.49998438     16.33421541      4.66811071
  H     15.60233984     15.49958286      5.29376377
  H     15.60224908     13.73583638      3.52985755
  H     19.39772487     15.19630587      2.06958497
  H     19.39762921     16.95998062      3.83356291
  H     17.49998331     17.11170182      5.44569916
  C     17.49998863     13.27258738      1.60608088
  C     17.49998981     12.42326645      0.75664848
  H     17.49999086     11.66671184     -0.00000542
  C     16.53497548     21.16075462      4.68854777
  C     16.53501628     20.17425692      3.70199148
  C     17.50000277     20.19490797      2.69494275
  C     18.46498886     21.20195742      2.67430797
  C     18.46502885     22.18849815      3.66082123
  C     17.50000197     22.16777694      4.66784282
  H     15.77422282     21.14436866      5.48235486
  H     15.77413876     19.38051108      3.71855974
  H     19.22586669     21.21853851      1.88056270
  H     19.22578120     22.98230581      3.64444810
  H     17.50000165     22.94530824      5.44538639
  C     17.50000321     19.10597214      1.60598975
  C     17.50000356     18.25660217      0.75660638
  H     17.50000386     17.50000388     -0.00000384
  C     16.82840900     26.79793383      4.88471218
  C     16.82843731     25.81143638      3.89815564
  C     17.50000040     26.02826030      2.69492543
  C     18.17156330     27.23149057      2.47810121
  C     18.17159122     28.21804746      3.46459831
  C     17.50000001     28.00114517      4.66780959
  H     16.29897836     26.62689386      5.83318008
  H     16.29891972     24.86300482      4.06941641
  H     18.70108105     27.40275111      1.52966969
  H     18.70102170     29.16651540      3.29355811
  H     17.49999986     28.77868273      5.44534689
  C     17.50000062     24.93931568      1.60598120
  C     17.50000079     24.08993887      0.75660468
  H     17.50000094     23.33333448      0.00000056
  C     16.34719116     33.05186328      4.44507561
  C     16.36217318     32.06826912      3.45573790
  C     17.51370307     31.86003695      2.69653383
  C     18.65030067     32.63529034      2.92653523
  C     18.63541443     33.61890823      3.91585079
  C     17.48383739     33.82708002      4.67501715
  H     15.43937753     33.21591904      5.04349264
  H     15.46597797     31.45729024      3.27468401
  H     19.55826075     32.47139944      2.32821272
  H     19.53145930     34.22997843      4.09706784
  H     17.47206696     34.60231527      5.45476113
  C     17.53018760     30.77431675      1.60449912
  C     17.54304553     29.92745497      0.75271203
  H     17.55449907     29.17309092     -0.00603937
  C     22.21850698      3.84551361      4.50377294
  C     22.21856502      2.85900192      3.51723063
  C     23.33331171      2.69491631      2.69492395
  C     24.44804702      3.51723533      2.85902498
  C     24.44808232      4.50377457      3.84553973
  C     23.33328896      4.66779776      4.66781154
  H     21.33969000      3.97476587      5.15193757
  H     21.33961241      2.21091335      3.38813738
  H     25.32700859      3.38815423      2.21094614
  H     25.32689033      5.15194893      3.97480414
  H     23.33327999      5.44533398      5.44535018
  C     23.33332426      1.60597358      1.60597784
  C     23.33333406      0.75659824      0.75659985
  H     23.33334278     -0.00000484     -0.00000558
  C     22.16308083      9.63207400      4.49746918
  C     22.21729609      8.63547268      3.52262686
  C     23.33104557      8.53519306      2.68879316
  C     24.39063191      9.43140935      2.82966788
  C     24.33650763     10.42804398      3.80448120
  C     23.22271533     10.52825780      4.63828133
  H     21.28505580      9.71102336      5.15472245
  H     21.38181128      7.92912023      3.41184367
  H     25.26879083      9.35264140      2.17249662
  H     25.17184443     11.13447460      3.91543627
  H     23.18002109     11.31374850      5.40659798
  C     23.39083904      7.43511005      1.61276248
  C     23.43747794      6.57704529      0.77345853
  H     23.47902275      5.81270189      0.02582681
  C     24.51719170     16.01198816      4.00396032
  C     24.51708815     15.02549318      3.01740131
  C     23.33346300     14.36150002      2.69503953
  C     22.14989184     14.68387385      3.35912308
  C     22.14989629     15.67035453      4.34569640
  C     23.33357099     16.33430620      4.66800238
  H     25.45030941     16.53534542      4.25799051
  H     25.45031684     14.77160411      2.49407912
  H     21.21662062     14.16062290      3.10524354
  H     21.21682114     15.92439423      4.86912491
  H     23.33361355     17.11181275      5.44557068
  C     23.33340340     13.27259883      1.60605187
  C     23.33335690     12.42325589      0.75664148
  H     23.33331549     11.66668168      0.00000719
  C     24.26244965     22.22055121      3.62874315
  C     24.26247518     21.23396477      2.64227560
  C     23.33319610     20.19499777      2.69481624
  C     22.40385260     20.14247354      3.73372644
  C     22.40374926     21.12901429      4.72023967
  C     23.33306725     22.16795549      4.66762755
  H     24.99505217     23.03952125      3.58721686
  H     24.99524901     21.27567740      1.82340802
  H     21.67112953     19.32356119      3.77545198
  H     21.67109596     21.08750093      5.53916494
  H     23.33301646     22.94552177      5.44513613
  C     23.33326723     19.10601294      1.60591223
  C     23.33332270     18.25660476      0.75656708
  H     23.33337212     17.49997243     -0.00000910
  C     23.99525535     28.22263122      3.45999792
  C     23.99526308     27.23604045      2.47353470
  C     23.33325168     26.02834324      2.69485101
  C     22.67120485     25.80708607      3.90253963
  C     22.67114169     26.79361702      4.88906267
  C     23.33318081     28.00129549      4.66766780
  H     24.51715586     29.17462069      3.28541635
  H     24.51727738     27.41079655      1.52158778
  H     22.14921847     24.85513240      4.07734234
  H     22.14921326     26.61908207      5.84104538
  H     23.33315287     28.77885961      5.44517854
  C     23.33329080     24.93936144      1.60594398
  C     23.33332131     24.08995561      0.75659647
  H     23.33334849     23.33332538      0.00001819
  C     24.50882246     33.53799407      3.98194705
  C     24.51166394     32.55305097      2.99384278
  C     23.33798619     31.86067448      2.69573565
  C     22.16141812     32.15311208      3.38561996
  C     22.15847825     33.13803844      4.37374063
  C     23.33220534     33.83037473      4.67179084
  H     25.43409840     34.08372766      4.21685578
  H     25.43936990     32.32276571      2.45017753
  H     21.23598938     31.60748082      3.15086532
  H     21.23092434     33.36847790      4.91750916
  H     23.32992704     34.60665721      5.45057787
  C     23.34117696     30.77348763      1.60504115
  C     23.34366576     29.92548187      0.75429943
  H     23.34588272     29.17009878     -0.00352078
  C     27.96665877      4.07809101      4.27127499
  C     27.96662026      3.09162940      3.28468260
  C     29.16687214      2.69474919      2.69506064
  C     30.36721277      3.28421379      3.09190620
  C     30.36735178      4.27068345      4.07849051
  C     29.16704965      4.66751099      4.66806786
  H     27.02043327      4.39086824      4.73600128
  H     27.02016913      2.62714314      2.97207369
  H     31.31359398      2.97157751      2.62729589
  H     31.31364723      4.73528569      4.39124041
  H     29.16711961      5.44500005      5.44565365
  C     29.16677416      1.60587250      1.60604849
  C     29.16669774      0.75654867      0.75661900
  H     29.16662967     -0.00000852     -0.00003231
  C     30.37659555     10.11843037      4.08492659
  C     30.39141765      9.14366571      3.08688591
  C     29.20365144      8.52228796      2.70104440
  C     28.00101492      8.87554987      3.31312607
  C     27.98609276      9.85030331      4.31117622
  C     29.17390973     10.47163860      4.69696378
  H     31.31297948     10.60819277      4.38900015
  H     31.33967458      8.86541829      2.60456991
  H     27.06447402      8.38589702      3.00919715
  H     27.03798892     10.12869505      4.79360752
  H     29.16218817     11.23990105      5.48357952
  C     29.22006753      7.44633319      1.59938576
  C     29.23287209      6.60708846      0.74009201
  H     29.24427808      5.85950948     -0.02534615
  C     30.24292610     16.22894963      3.78710630
  C     30.24294224     15.24242594      2.80057599
  C     29.16652736     14.36154539      2.69496824
  C     28.09005129     14.46705146      3.57578621
  C     28.08994503     15.45354269      4.56234897
  C     29.16640498     16.33439082      4.66789184
  H     31.09152399     16.92329131      3.87025719
  H     31.09172796     15.15953396      2.10636185
  H     27.24131377     13.77278796      3.49281407
  H     27.24129892     15.53661343      5.25664131
  H     29.16635674     17.11191285      5.44544467
  C     29.16659490     13.27262254      1.60600225
  C     29.16664759     12.42326270      0.75660877
  H     29.16669452     11.66667343     -0.00001048
  C     30.37270823     21.72208056      4.12731017
  C     30.37269793     20.73552948      3.14080725
  C     29.16656618     20.19500705      2.69487649
  C     27.96039424     20.64091288      3.23532981
  C     27.96030356     21.62745999      4.22183669
  C     29.16648580     22.16793575      4.66771682
  H     31.32356916     22.14809895      4.47875667
  H     31.32374697     20.38423725      2.71496568
  H     27.00937686     20.21501682      2.88401791
  H     27.00941096     21.97888684      4.64780060
  H     29.16645412     22.94549060      5.44523683
  C     29.16661054     19.10603824      1.60595646
  C     29.16664515     18.25664255      0.75659882
  H     29.16667597     17.50002135      0.00001152
  C     29.84644906     28.21426244      3.46832554
  C     29.84638048     27.22768676      2.48184723
  C     29.16678644     26.02829585      2.69488699
  C     28.48723254     25.81533023      3.89431380
  C     28.48724423     26.80184678      4.88085124
  C     29.16686671     28.00121860      4.66773327
  H     30.38221093     29.15970360      3.30026884
  H     30.38219887     27.39590510      1.53641463
  H     27.95138253     24.86992595      4.06259058
  H     27.95151398     26.63384852      5.82632071
  H     29.16689834     28.77877110      5.44525563
  C     29.16674214     24.93933033      1.60596367
  C     29.16670759     24.08993720      0.75660347
  H     29.16667681     23.33331828      0.00001387
  C     29.95132279     33.99074055      3.52521129
  C     29.95139752     33.00414248      2.53875537
  C     29.16641707     31.86167505      2.69478880
  C     28.38132905     31.70565769      3.83718449
  C     28.38118860     32.69220140      4.82369476
  C     29.16620191     33.83464735      4.66758551
  H     30.57016666     34.89130575      3.40209586
  H     30.57042799     33.12745795      1.63829097
  H     27.76238334     30.80513676      3.96051259
  H     27.76225995     32.56909862      5.72420342
  H     29.16611712     34.61221938      5.44508834
  C     29.16653583     30.77268218      1.60589283
  C     29.16662847     29.92326772      0.75655397
  H     29.16671098     29.16662980     -0.00001662
  C     -1.14832629      3.90938032     16.43993083
  C     -1.14827725      2.92286222     15.45339493
  C     -0.00000246      2.69493155     14.69491938
  C      1.14827136      3.45340924     14.92284780
  C      1.14831846      4.43994955     15.90936148
  C     -0.00000440      4.66782047     16.66779949
  H     -2.05357534      4.08896520     17.03777382
  H     -2.05367448      2.32511160     15.27397472
  H      2.05366935      3.27398724     14.32509887
  H      2.05356674      5.03779423     16.08894458
  H     -0.00000516      5.44535964     17.44533518
  C     -0.00000140      1.60598469     13.60597740
  C     -0.00000056      0.75660613     12.75660263
  H      0.00000018      0.00000018     12.00000006
  C     -0.75287894      9.33991975     16.84271633
  C     -0.75283003      8.35341654     15.85616555
  C     -0.00003782      8.52826866     14.69491487
  C      0.75273701      9.68953114     14.52006617
  C      0.75275113     10.67609028     15.50656102
  C     -0.00007260     10.50116154     16.66779102
  H     -1.34634702      9.20196849     17.75808943
  H     -1.34638206      7.43807597     15.99432924
  H      1.34630273      9.82769753     13.60473490
  H      1.34620551     11.59147267     15.36861246
  H     -0.00008631     11.27870227     17.44532515
  C     -0.00001862      7.43931962     13.60597506
  C     -0.00000364      6.58993936     12.75660200
  H      0.00000970      5.83333189     12.00000095
  C     -1.21279067     15.44232175     16.48540245
  C     -1.12356288     14.44132157     15.51766897
  C     -0.00636278     14.37352609     14.68517859
  C      1.02166536     15.30662629     14.82028856
  C      0.93252738     16.30766269     15.78799284
  C     -0.18471323     16.37539070     16.62045010
  H     -2.09353227     15.49566158     17.14159748
  H     -1.93417508     13.70588803     15.41142907
  H      1.90253448     15.25347294     14.16417433
  H      1.74298883     17.04317048     15.89440400
  H     -0.25500328     17.16434953     17.38316380
  C      0.09207873     13.26858595     13.61699487
  C      0.16886311     12.40673262     12.78381155
  H      0.23726079     11.63901445     12.04163194
  C     -0.74652990     21.00297382     16.84630465
  C     -0.74649526     20.01649262     15.85973185
  C     -0.00000356     20.19488697     14.69495799
  C      0.74648474     21.35966979     14.51660799
  C      0.74651260     22.34620722     15.50312456
  C     -0.00001035     22.16773611     16.66787788
  H     -1.33503094     20.86223003     17.76445525
  H     -1.33509044     19.09837631     16.00065627
  H      1.33508260     21.50062917     13.59849875
  H      1.33501095     23.26436490     15.36241572
  H     -0.00001303     22.94525960     17.44542925
  C      0.00000019     19.10596207     13.60599405
  C      0.00000312     18.25660063     12.75660215
  H      0.00000572     17.50000994     11.99998433
  C      0.80973244     27.92441562     15.92176353
  C      0.97382095     26.92467760     14.96256079
  C     -0.07503163     26.04922851     14.68101206
  C     -1.28799996     26.17337926     15.35855686
  C     -1.45218315     27.17308583     16.31777617