1008
Energy =      0.00000000 au
  C     -1.15602933      3.92648350      4.42280731
  C     -1.15595891      2.93996011      3.43627670
  C     -0.00005455      2.69494277      2.69491029
  C      1.15582777      3.43633837      2.93994326
  C      1.15585412      4.42288254      3.92645308
  C     -0.00009862      4.66784085      4.66778124
  H     -2.06729319      4.11953875      5.00716222
  H     -2.06735533      2.35567847      3.24336979
  H      2.06724156      3.24344379      2.35568463
  H      2.06710061      5.00726046      4.11952066
  H     -0.00011599      5.44538362      5.44531333
  C     -0.00003022      1.60599086      1.60597335
  C     -0.00001125      0.75660835      0.75660253
  H      0.00000565     -0.00000110      0.00000347
  C      0.75127141     10.67693254      3.50571882
  C      0.75124870      9.69037530      2.51922207
  C     -0.00002309      8.52826791      2.69491967
  C     -0.75130364      8.35256894      3.85702120
  C     -0.75134383      9.33907018      4.84357396
  C     -0.00004058     10.50115692      4.66779970
  H      1.34354086     11.59298102      3.36710102
  H      1.34362250      9.82920942      1.60321992
  H     -1.34367054      7.43656217      3.99585424
  H     -1.34362018      9.20045130      5.75961782
  H     -0.00004747     11.27869612      5.44533536
  C     -0.00001344      7.43932101      1.60597773
  C     -0.00000591      6.58994241      0.75660300
  H      0.00000079      5.83333644      0.00000046
  C      1.01089708     16.30891843      3.70708213
  C      1.01086712     15.32238694      2.72055963
  C     -0.00003087     14.36155266      2.69496079
  C     -1.01094120     14.38710947      3.65578320
  C     -1.01099587     15.37360182      4.64234485
  C     -0.00005556     16.33440702      4.66787546
  H      1.80784434     17.06629210      3.72715753
  H      1.80795522     15.30253378      1.96326315
  H     -1.80801957     13.62980362      3.63589692
  H     -1.80795285     15.39364410      5.39970915
  H     -0.00006530     17.11193257      5.44542477
  C     -0.00001723     13.27262487      1.60599973
  C     -0.00000660     12.42326119      0.75661009
  H      0.00000287     11.66666849     -0.00000573
  C     -0.72498629     20.99141518      4.85791667
  C     -0.72499071     20.00492220      3.87135565
  C      0.00007539     20.19491405      2.69493958
  C      0.72517627     21.37130666      2.50493509
  C      0.72524140     22.35785684      3.49143890
  C      0.00014494     22.16778773      4.66783493
  H     -1.29659634     20.84152843      5.78524548
  H     -1.29672221     19.07765175      4.02146946
  H      1.29688037     21.52141050      1.57764613
  H      1.29687885     23.28516715      3.34154219
  H      0.00017235     22.94532089      5.44537663
  C      0.00003701     19.10597561      1.60598918
  C      0.00000707     18.25660361      0.75660785
  H     -0.00001960     17.50000351     -0.00000057
  C     -0.75568421     26.84147433      4.84113826
  C     -0.75567098     25.85499569      3.85456290
  C      0.00003660     26.02820519      2.69496078
  C      0.75576258     27.18780039      2.52178530
  C      0.75581262     28.17433482      3.50830486
  C      0.00007341     28.00104878      4.66788623
  H     -1.35145064     26.70481804      5.75521169
  H     -1.35154993     24.94096974      3.99140729
  H      1.35162703     27.32467158      1.60775390
  H      1.35159355     29.08840281      3.37167539
  H      0.00008791     28.77857008      5.44543979
  C      0.00001628     24.93928336      1.60599377
  C      0.00000044     24.08992431      0.75659949
  H     -0.00001368     23.33333575     -0.00002046
  C      1.16507739     33.56733759      3.94862380
  C      1.16502518     32.58075405      2.96215335
  C      0.00000340     31.86170597      2.69482089
  C     -1.16501494     32.12911113      3.41384751
  C     -1.16506027     33.11567577      4.40033687
  C      0.00001028     33.83468465      4.66761123
  H      2.08352903     34.13409770      4.15927131
  H      2.08362522     32.37020700      2.39550931
  H     -2.08361770     31.56245021      3.20335776
  H     -2.08350920     33.32638059      4.96708008
  H      0.00001299     34.61225919      5.44511155
  C     -0.00000040     30.77270957      1.60592844
  C     -0.00000337     29.92329236      0.75659232
  H     -0.00000601     29.16665200      0.00002418
  C      4.69268092      3.78070715      4.52661803
  C      4.73676244      2.78589600      3.54943912
  C      5.83214275      2.70036586      2.69002122
  C      6.88349187      3.60954226      2.80764703
  C      6.83950022      4.60438790      3.78479490
  C      5.74407715      4.68985174      4.64418013
  H      3.82913625      3.84802886      5.20404050
  H      3.90777562      2.06932414      3.45698807
  H      7.74717003      3.54240353      2.13030371
  H      7.66834207      5.32103589      3.87742130
  H      5.70936944      5.47393196      5.41433757
  C      5.88075104      1.60225822      1.61141251
  C      5.91866550      0.74573425      0.77009769
  H      5.95243880     -0.01723665      0.02067474
  C      6.79419529     10.52573298      3.65691690
  C      6.79416071      9.53918283      2.67041306
  C      5.83331969      8.52826423      2.69492155
  C      4.87247303      8.50375329      3.70583472
  C      4.87242716      9.49026010      4.69238191
  C      5.83330841     10.50115172      4.66780309
  H      7.55167985     11.32259091      3.63748991
  H      7.55177435      9.55880738      1.87362073
  H      4.11486384      7.70695669      3.72545734
  H      4.11493815      9.47083118      5.48923555
  H      5.83330396     11.27869032      5.44533935
  C      5.83332592      7.43931817      1.60597877
  C      5.83333078      6.58994022      0.75660338
  H      5.83333511      5.83333483      0.00000027
  C      7.00858673     16.03840546      3.97767513
  C      7.00851162     15.05211376      2.99091290
  C      5.83338876     14.36102084      2.69553280
  C      4.65829183     14.65609055      3.38680237
  C      4.65826856     15.64236567      4.37358117
  C      5.83344061     16.33341824      4.66890432
  H      7.93500161     16.58312699      4.21043413
  H      7.93505849     14.81975354      2.44615499
  H      3.73172453     14.11147178      3.15419755
  H      3.73187412     15.87488002      4.91844191
  H      5.83346104     17.11076369      5.44663368
  C      5.83336014     13.27234529      1.60631958
  C      5.83333782     12.42317834      0.75673325
  H      5.83331794     11.66676090     -0.00005777
  C      4.62769365     21.62070994      4.22859910
  C      4.62774499     20.63417392      3.24208113
  C      5.83333450     20.19495105      2.69489766
  C      7.03892314     20.74214564      3.13410907
  C      7.03897274     21.72868618      4.12062252
  C      5.83333276     22.16785814      4.66775960
  H      3.67726022     21.96686824      4.65986876
  H      3.67715586     20.20301697      2.89606733
  H      7.98951296     20.39612282      2.70296087
  H      7.98940549     22.15996461      4.46677178
  H      5.83333208     22.94540447      5.44528813
  C      5.83333546     19.10599417      1.60596569
  C      5.83333621     18.25660779      0.75659875
  H      5.83333688     17.49999487      0.00000315
  C      5.05622022     26.85397046      4.82867525
  C      5.05625071     25.86747093      3.84212078
  C      5.83333815     26.02825779      2.69492627
  C      6.61042762     27.17545073      2.53413803
  C      6.61046219     28.16200501      3.52063774
  C      5.83334222     28.00114212      4.66781098
  H      4.44359885     26.72710763      5.73296707
  H      4.44352696     24.96322399      3.96919800
  H      7.22314978     27.30252687      1.62988985
  H      7.22308515     29.06629560      3.39377382
  H      5.83334382     28.77867948      5.44534848
  C      5.83333591     24.93931347      1.60598175
  C      5.83333416     24.08993689      0.75660500
  H      5.83333260     23.33333271      0.00000067
  C      4.74108200     32.97644339      4.53954663
  C      4.74112464     31.98991678      3.55301925
  C      5.83333661     31.86162618      2.69488925
  C      6.92555165     32.71975665      2.82315052
  C      6.92560045     33.70631382      3.80964735
  C      5.83334276     33.83454048      4.66774398
  H      3.88003040     33.07747644      5.21595278
  H      3.87992895     31.31359140      3.45218512
  H      7.78674491     32.61889941      2.14682551
  H      7.78665447     34.38272033      3.91065729
  H      5.83334519     34.61208965      5.44526967
  C      5.83333321     30.77266532      1.60596127
  C      5.83333056     29.92327583      0.75659743
  H      5.83332819     29.16666015      0.00000459
  C     10.37216099      3.93903676      4.30168730
  C     10.46318297      2.94509635      3.32687014
  C     11.67979376      2.70316879      2.68882485
  C     12.80544274      3.45507057      3.02547103
  C     12.71451880      4.44903233      4.00027557
  C     11.49786347      4.69090020      4.63827909
  H      9.41304859      4.12965538      4.80458965
  H      9.57559763      2.35253299      3.06172401
  H     13.76469519      3.26461447      2.52267608
  H     13.60194039      5.04169206      4.26556820
  H     11.42616256      5.47428897      5.40658237
  C     11.78021119      1.60602954      1.61281290
  C     11.85853678      0.75026091      0.77352357
  H     11.92830732     -0.01203716      0.02590486
  C     10.58221195      9.63319731      4.54977097
  C     10.58204616      8.64662226      3.56329203
  C     11.66717922      8.52843418      2.69479311
  C     12.75252345      9.39671602      2.81263659
  C     12.75278010     10.38332247      3.79908409
  C     11.66760160     10.50144619      4.66755008
  H      9.72674103      9.72626598      5.23435153
  H      9.72626806      7.96229270      3.47067217
  H     13.60813517      9.30382448      2.12813581
  H     13.60841746     11.06773187      3.89188110
  H     11.66776807     11.27903387      5.44503725
  C     11.66694608      7.43941939      1.60591909
  C     11.66676423      6.58998784      0.75659733
  H     11.66660224      5.83333469      0.00004199
  C     12.45738782     16.48700188      3.52893089
  C     12.45738325     15.50045899      2.54241978
  C     11.66659549     14.36152371      2.69491144
  C     10.87577919     14.20898347      3.83382039
  C     10.87571755     15.19547230      4.82038555
  C     11.66653842     16.33438596      4.66781822
  H     13.08080991     17.38478249      3.40860763
  H     13.08093040     15.62103277      1.64470465
  H     10.25225452     13.31124758      3.95435587
  H     10.25227297     15.07511075      5.71814541
  H     11.66651592     17.11191461      5.44536443
  C     11.66662699     13.27259158      1.60595472
  C     11.66665156     12.42322451      0.75656847
  H     11.66667345     11.66662879     -0.00004433
  C     10.89469419     21.01756963      4.83173022
  C     10.89473347     20.03107084      3.84517502
  C     11.66664692     20.19492113      2.69492494
  C     12.43855342     21.34517689      2.53108173
  C     12.43857877     22.33173069      3.51758192
  C     11.66663300     22.16780425      4.66781086
  H     10.28615177     20.88829174      5.73843092
  H     10.28609640     19.12440891      3.97466104
  H     13.04719596     21.47466848      1.62442428
  H     13.04711571     23.23843587      3.38830960
  H     11.66662752     22.94534113      5.44534884
  C     11.66665461     19.10597748      1.60597975
  C     11.66666060     18.25660142      0.75660248
  H     11.66666594     17.49999770     -0.00000231
  C     10.60345139     27.10268573      4.58002395
  C     10.60345141     26.11617958      3.59347610
  C     11.66678230     26.02826711      2.69493763
  C     12.73015767     26.92675692      2.78280922
  C     12.73024668     27.91329700      3.76932313
  C     11.66687127     28.00114386      4.66782991
  H      9.76516835     27.17188645      5.28828634
  H      9.76499539     25.40803144      3.52448865
  H     13.56857864     26.85773724      2.07462272
  H     13.56856478     28.62152105      3.83849162
  H     11.66690634     28.77867823      5.44537041
  C     11.66673318     24.93932697      1.60598892
  C     11.66669488     24.08995365      0.75660891
  H     11.66666075     23.33335238      0.00000168
  C     10.60240707     32.93712873      4.57884244
  C     10.60244810     31.95062094      3.59229623
  C     11.66667471     31.86157886      2.69493021
  C     12.73090484     32.75894066      2.78397265
  C     12.73095292     33.74548229      3.77048502
  C     11.66668175     33.83445880      4.66781930
  H      9.76341788     33.00721998      5.28618053
  H      9.76331809     31.24336222      3.52238559
  H     13.57003207     32.68903030      2.07671061
  H     13.56994488     34.45281706      3.84057656
  H     11.66668453     34.61199443      5.44535854
  C     11.66667082     30.77263696      1.60598327
  C     11.66666778     29.92326226      0.75660463
  H     11.66666508     29.16665976     -0.00000138
  C     16.45019926      3.69042874      4.59175808
  C     16.49474746      2.72614492      3.58446308
  C     17.57759244      2.68446574      2.70612252
  C     18.61593907      3.60697070      2.83493791
  C     18.57147968      4.57129139      3.84220153
  C     17.48859249      4.61290458      4.72050811
  H     15.59653694      3.72318356      5.28409512
  H     15.67601277      1.99905448      3.48319832
  H     19.46973317      3.57439858      2.14268343
  H     19.39007100      5.29845029      3.94364608
  H     17.45351655      5.37292544      5.51440160
  C     17.62671645      1.62005335      1.59427136
  C     17.66503317      0.78981167      0.72702744
  H     17.69916479      0.05025240     -0.04549254
  C     16.65224877      9.40135013      4.78180925
  C     16.65202135      8.41460588      3.79549958
  C     17.50063820      8.52884284      2.69433115
  C     18.34951796      9.62972863      2.57932614
  C     18.34981645     10.61652376      3.56558489
  C     17.50116406     10.50221270      4.66673014
  H     15.98323676      9.31118516      5.64981617
  H     15.98269206      7.54687152      3.88647732
  H     19.01864010      9.72010092      1.71136878
  H     19.01903568     11.48430781      3.47481447
  H     17.50137130     11.27994141      5.44407621
  C     17.50034794      7.43963053      1.60565472
  C     17.50012155      6.59004491      0.75648709
  H     17.49991988      5.83325453      0.00006904
  C     16.42017897     15.45838330      4.55760598
  C     16.42021523     14.47186913      3.57106615
  C     17.50002125     14.36159649      2.69492035
  C     18.57983621     15.23773321      2.80517753
  C     18.57989036     16.22427943      3.79168530
  C     17.50003914     16.33448740      4.66779848
  H     15.56890768     15.54521179      5.24821499
  H     15.56879682     13.78134609      3.48442800
  H     19.43124757     15.15108286      2.11464732
  H     19.43116870     16.91488129      3.87850160
  H     17.50004619     17.11202735      5.44533339
  C     17.50001137     13.27264854      1.60597946
  C     17.50000367     12.42326912      0.75660555
  H     17.49999680     11.66666241      0.00000374
  C     16.55249659     21.14472087      4.70459236
  C     16.55254101     20.15821595      3.71804328
  C     17.49999033     20.19492933      2.69492820
  C     18.44743488     21.21804897      2.65821918
  C     18.44746978     22.20459826      3.64472389
  C     17.49998081     22.16781405      4.66781251
  H     15.80556946     21.11567209      5.51106545
  H     15.80549474     19.35179900      3.74728584
  H     19.19448490     21.24729496      1.85180583
  H     19.19439316     23.01107495      3.61567855
  H     17.49997705     22.94535156      5.44534986
  C     17.49999558     19.10598479      1.60598389
  C     17.49999968     18.25660803      0.75660732
  H     17.50000333     17.50000370      0.00000314
  C     16.29339782     27.46435918      4.21823870
  C     16.29348084     26.47784271      3.23170118
  C     17.49992843     26.02823844      2.69493982
  C     18.70634351     26.56503163      3.14459334
  C     18.70636149     27.55155175      4.13112722
  C     17.49986340     28.00110555      4.66784174
  H     15.34228791     27.81870173      4.64129203
  H     15.34224007     26.05488711      2.87745394
  H     19.65760990     26.21082321      2.72166284
  H     19.65744577     27.97463017      4.48550858
  H     17.49983777     28.77863612      5.44538604
  C     17.49996432     24.93930362      1.60598579
  C     17.49999232     24.08993445      0.75660164
  H     17.50001726     23.33333687     -0.00000930
  C     16.26194010     33.27174086      4.22027166
  C     16.28205022     32.27990154      3.23929185
  C     17.49604597     31.86466356      2.69196719
  C     18.68998445     32.44114679      3.12549980
  C     18.66997513     33.43299286      4.10647484
  C     17.45592998     33.84817856      4.65375351
  H     15.30488171     33.59898997      4.65165322
  H     15.34064101     31.82565252      2.89775404
  H     19.64719641     32.11403730      2.69423860
  H     19.61122557     33.88736059      4.44814779
  H     17.44011978     34.62990559      5.42691701
  C     17.51818821     30.76985158      1.60914848
  C     17.53545916     29.91589822      0.76454986
  H     17.55084371     29.15521716      0.01220178
  C     24.19851875      4.77081082      3.57852040
  C     24.19848890      3.78426187      2.59201534
  C     23.33331743      2.69492365      2.69493817
  C     22.46813959      2.59198859      3.78427018
  C     22.46809700      3.57848762      4.77082514
  C     23.33330469      4.66780215      4.66782871
  H     24.88058166      5.62949130      3.49727501
  H     24.88066906      3.86572270      1.73339091
  H     21.78596445      1.73335925      3.86572136
  H     21.78602906      3.49723259      5.62950073
  H     23.33329966      5.44533720      5.44536851
  C     23.33332446      1.60598255      1.60599043
  C     23.33332995      0.75660848      0.75661117
  H     23.33333483      0.00000654      0.00000460
  C     22.24965713      9.63033402      4.55235613
  C     22.24972573      8.64383088      3.56580528
  C     23.33327704      8.52828222      2.69497946
  C     24.41680511      9.39913168      2.81056785
  C     24.41682723     10.38566644      3.79708709
  C     23.33323056     10.50115064      4.66788006
  H     21.39543321      9.72132189      5.23877110
  H     21.39537958      7.95747675      3.47496353
  H     25.27116958      9.30832127      2.12423237
  H     25.27103283     11.07210006      3.88810628
  H     23.33321224     11.27868173      5.44542384
  C     23.33330270      7.43934668      1.60602615
  C     23.33332271      6.58997694      0.75664256
  H     23.33334054      5.83337886      0.00003213
  C     24.52558526     15.97928162      4.03667399
  C     24.52551756     14.99275831      3.05014331
  C     23.33337471     14.36156466      2.69494964
  C     22.14124965     14.71676772      3.32617160
  C     22.14121753     15.70327948      4.31271384
  C     23.33341029     16.33443025      4.66785308
  H     25.46541795     16.47678119      4.31658738
  H     25.46549086     14.71298388      2.55273199
  H     21.20126233     14.21937872      3.04640459
  H     21.20139887     15.98320028      4.81023573
  H     23.33342432     17.11196022      5.44539797
  C     23.33335507     13.27263068      1.60599477
  C     23.33333975     12.42326217      0.75660996
  H     23.33332610     11.66666517     -0.00000156
  C     22.19027446     21.39887752      4.45046626
  C     22.19024788     20.41234755      3.46394223
  C     23.33349865     20.19492198      2.69486724
  C     24.47682385     20.96391711      2.91218390
  C     24.47694616     21.95047017      3.89868482
  C     23.33364752     22.16783554      4.66772272
  H     21.28898612     21.57018063      5.05666539
  H     21.28875259     19.80630409      3.29288923
  H     25.37826050     20.79277824      2.30607746
  H     25.37829316     22.55660632      4.06990208
  H     23.33370619     22.94538441      5.44524870
  C     23.33341648     19.10596154      1.60593885
  C     23.33335239     18.25657237      0.75657469
  H     23.33329530     17.49995698     -0.00001843
  C     24.35279046     27.96623936      3.71641148
  C     24.35276577     26.97969343      2.72990341
  C     23.33330509     26.02824774      2.69492410
  C     22.31382641     26.06320797      3.64635121
  C     22.31376573     27.04971553      4.63289764
  C     23.33326910     28.00113175      4.66780912
  H     25.15648817     28.71621147      3.74388204
  H     25.15660990     26.95242583      1.98001498
  H     21.50999646     25.31330490      3.61906856
  H     21.51005384     27.07717105      5.38285511
  H     23.33325492     28.77866899      5.44534675
  C     23.33332495     24.93930360      1.60597940
  C     23.33334044     24.08992715      0.75660251
  H     23.33335424     23.33332309     -0.00000194
  C     22.25290109     32.94087425      4.55668107
  C     22.26579857     31.95997324      3.56464383
  C     23.35403106     31.85875954      2.69788068
  C     24.42941294     32.73834300      2.82301774
  C     24.41660603     33.71927660      3.81502394
  C     23.32832888     33.82042564      4.68175369
  H     21.39498810     33.02056168      5.23989263
  H     21.41787169     31.26673078      3.46627476
  H     25.28746458     32.65883380      2.13988727
  H     25.26439091     34.41259632      3.91357029
  H     23.31819935     34.59354176      5.46362182
  C     23.36821752     30.77600718      1.60287110
  C     23.37928296     29.93146032      0.74876360
  H     23.38913979     29.17915835     -0.01205476
  C     28.38319624      3.52432979      4.82492704
  C     28.38321420      2.53785877      3.83834407
  C     29.16669825      2.69484276      2.69498004
  C     29.95019713      3.83820416      2.53805092
  C     29.95024476      4.82472962      3.52457946
  C     29.16672792      4.66766977      4.66792206
  H     27.76553207      3.40046498      5.72619909
  H     27.76543672      1.63663293      3.96237844
  H     30.56796292      3.96228178      1.63682302
  H     30.56792062      5.72599960      3.40075790
  H     29.16673961      5.44518453      5.44548216
  C     29.16668187      1.60593008      1.60600387
  C     29.16666910      0.75657817      0.75660245
  H     29.16665772     -0.00000403     -0.00002386
  C     28.46490999      9.31315810      4.86965072
  C     28.46470636      8.32667135      3.88308349
  C     29.16721042      8.52823622      2.69496221
  C     29.86994749      9.71619609      2.49325822
  C     29.87020995     10.70274100      3.47976727
  C     29.16767647     10.50109840      4.66786900
  H     27.91108685      9.15414769      5.80620741
  H     27.91060846      7.39028027      4.04242219
  H     30.42386180      9.87542508      1.55673987
  H     30.42421675     11.63917044      3.32064719
  H     29.16786015     11.27862703      5.44541521
  C     29.16695318      7.43930412      1.60600549
  C     29.16675253      6.58993707      0.75661923
  H     29.16657380      5.83334138      0.00000643
  C     28.29699900     15.24888300      4.76715270
  C     28.29694208     14.26233948      3.78064221
  C     29.16690981     14.36164950      2.69479406
  C     30.03697088     15.44740700      2.59531076
  C     30.03710065     16.43400012      3.58177163
  C     29.16709649     16.33461665      4.66759594
  H     27.61115492     15.17048579      5.62308177
  H     27.61091159     13.40653351      3.85938137
  H     30.72292783     15.52600955      1.73943329
  H     30.72301830     17.28985772      3.50323782
  H     29.16717007     17.11218664      5.44510080
  C     29.16680677     13.27265947      1.60589526
  C     29.16672640     12.42324724      0.75655417
  H     29.16665481     11.66661129     -0.00001839
  C     29.86327411     22.37253137      3.47677638
  C     29.86325216     21.38597752      2.49027623
  C     29.16664890     20.19491294      2.69492620
  C     28.47003842     19.99025217      3.88598470
  C     28.47000204     20.97674759      4.87254328
  C     29.16663447     22.16779273      4.66781544
  H     30.41244530     23.31140842      3.31533382
  H     30.41251941     21.54764760      1.55144193
  H     27.92077687     19.05141308      4.04764625
  H     27.92082516     20.81529651      5.81141553
  H     29.16662878     22.94532830      5.44535474
  C     29.16665687     19.10597113      1.60597917
  C     29.16666309     18.25659650      0.75660047
  H     29.16666862     17.49999406     -0.00000560
  C     28.08783446     27.12393848      4.55871258
  C     28.08773037     26.13754378      3.57205331
  C     29.16701344     26.02793824      2.69517976
  C     30.24644576     26.90462264      2.80482857
  C     30.24664022     27.89104946      3.79145572
  C     29.16731196     28.00059030      4.66829668
  H     27.23697542     27.21024108      5.24989531
  H     27.23661371     25.44658885      3.48589488
  H     31.09744483     26.81849826      2.11372457
  H     31.09761690     28.58208309      3.87779240
  H     29.16742961     28.77803612      5.44592571
  C     29.16684867     24.93912212      1.60610706
  C     29.16672015     24.08984553      0.75663034
  H     29.16660566     23.33333042     -0.00006304
  C     28.43049401     32.66402577      4.85194731
  C     28.43052745     31.67752646      3.86539262
  C     29.16665946     31.86159221      2.69492176
  C     29.90278883     33.03206477      2.51085642
  C     29.90281702     34.01862078      3.49735441
  C     29.16665420     33.83447804      4.66780496
  H     27.85016010     32.51881090      5.77458917
  H     27.85010013     30.75492387      4.01082349
  H     30.48321823     33.17749596      1.58825518
  H     30.48314886     34.94126400      3.35213985
  H     29.16665213     34.61201599      5.44534188
  C     29.16666236     30.77264706      1.60597807
  C     29.16666462     29.92326982      0.75660197
  H     29.16666663     29.16666506     -0.00000178
  C     -1.06095862      3.76638735     16.58296173
  C     -1.06093313      2.77984774     15.59644735
  C      0.00005116      2.69499821     14.69484576
  C      1.06105438      3.59658455     14.77962064
  C      1.06111772      4.58315835     15.76610083
  C      0.00008901      4.66794213     16.66767087
  H     -1.89739171      3.83317338     17.29363897
  H     -1.89751876      2.06925804     15.52990160
  H      1.89762509      3.52997997     14.06901890
  H      1.89756573      5.29382356     15.83282802
  H      0.00010393      5.44550298     17.44518488
  C      0.00003027      1.60602100     13.60593413
  C      0.00001398      0.75661876     12.75658304
  H     -0.00000054     -0.00000828     12.00000157
  C     -0.75367207      9.34050080     16.84214612
  C     -0.75365539      8.35398151     15.85561141
  C      0.00002610      8.52829183     14.69485619
  C      0.75372244      9.68902854     14.52048691
  C      0.75376886     10.67560371     15.50696573
  C      0.00005582     10.50121680     16.66770025
  H     -1.34784122      9.20297668     17.75712861
  H     -1.34793400      7.43905551     15.99339708
  H      1.34798935      9.82676772     13.60554630
  H      1.34794972     11.59057161     15.36939512
  H      0.00006754     11.27877018     17.44522173
  C      0.00000969      7.43932507     13.60593410
  C     -0.00000311      6.58993099     12.75657486
  H     -0.00001451      5.83331121     11.99998612
  C      0.88376681     16.42374336     15.59216283
  C      0.88372295     15.43717894     14.60567325
  C      0.00001627     14.36159597     14.69487160
  C     -0.88368353     14.27243221     15.77046308
  C     -0.88371366     15.25894787     16.75700141
  C      0.00003001     16.33450657     16.66773004
  H      1.58044206     17.27157981     15.52173722
  H      1.58050741     15.50778129     13.75788302
  H     -1.58047340     13.42464870     15.84109270
  H     -1.58038349     15.18854953     17.60484458
  H      0.00003542     17.11205428     17.44525719
  C      0.00000869     13.27263715     13.60594158
  C      0.00000278     12.42324926     12.75657614
  H     -0.00000249     11.66663500     11.99998189
  C     -1.24144292     21.17196700     16.52745898
  C     -1.08189391     20.16717307     15.57278401
  C     -0.01249688     20.21803386     14.67859403
  C      0.89741211     21.27358869     14.73894465
  C      0.73794596     22.27842894     15.69358471
  C     -0.33148464     22.22749543     16.58774506
  H     -2.08449116     21.13176306     17.23229663
  H     -1.79939211     19.33518697     15.52548683
  H      1.74056795     21.31399524     14.03417724
  H      1.45529502     23.11047413     15.74106029
  H     -0.45720154     23.01944832     17.34016436
  C      0.16357016     19.10890054     13.62482766
  C      0.30090246     18.24377653     12.80288988
  H      0.42323476     17.47314491     12.07072751
  C      0.75293064     28.17651487     15.50596850
  C      0.75277388     27.18987829     14.51955111
  C      0.00028320     26.02848378     14.69474558
  C     -0.75208223     25.85357704     15.85626460
  C     -0.75198846     26.84015768     16.84273795