1008
Energy =      0.00000000 au
  C     -1.19269805      4.03872235      4.31057815
  C     -1.19264005      3.05220693      3.32403956
  C     -0.00001796      2.69490979      2.69494193
  C      1.19259606      3.32401291      3.05225635
  C      1.19263792      4.31053970      4.03878356
  C     -0.00003410      4.66778251      4.66783824
  H     -2.13290855      4.32029403      4.80642531
  H     -2.13299888      2.55646628      3.04260036
  H      2.13296126      3.04258732      2.55652003
  H      2.13284206      4.80639119      4.32036887
  H     -0.00004046      5.44531529      5.44538031
  C     -0.00000905      1.60597187      1.60599100
  C     -0.00000210      0.75660028      0.75660925
  H      0.00000409      0.00000055      0.00000048
  C      0.74183256     10.68217213      3.50045654
  C      0.74183036      9.69560223      2.51397245
  C     -0.00007070      8.52828588      2.69488100
  C     -0.74200061      8.34739038      3.86218104
  C     -0.74206052      9.33390384      4.84872157
  C     -0.00012840     10.50119976      4.66773615
  H      1.32671454     11.60232712      3.35773066
  H      1.32683130      9.83853373      1.59387135
  H     -1.32697882      7.42727643      4.00512283
  H     -1.32696523      9.19118825      5.76886371
  H     -0.00015114     11.27874877      5.44526201
  C     -0.00003885      7.43932525      1.60595279
  C     -0.00001401      6.58993594      0.75658877
  H      0.00000812      5.83332042     -0.00000422
  C      1.14718555     16.10900731      3.90697401
  C      1.14714027     15.12247401      2.92045331
  C     -0.00001048     14.36158034      2.69493498
  C     -1.14716396     14.58708792      3.45582771
  C     -1.14721472     15.57359881      4.44237082
  C     -0.00001596     16.33445504      4.66782930
  H      2.05154845     16.70875665      4.08465711
  H      2.05165412     14.94496258      2.32079847
  H     -2.05167567     13.98743234      3.27830781
  H     -2.05157979     15.75127343      5.04211941
  H     -0.00001811     17.11198861      5.44537060
  C     -0.00000746     13.27264133      1.60598514
  C     -0.00000510     12.42326889      0.75660425
  H     -0.00000300     11.66666839     -0.00000377
  C     -1.00939259     21.20513989      4.64412055
  C     -1.00933756     20.21866183      3.65754462
  C     -0.00002550     20.19484236      2.69499886
  C      1.00927378     21.15739977      2.71888855
  C      1.00930326     22.14391713      3.70542518
  C     -0.00005105     22.16766830      4.66794194
  H     -1.80508956     21.22381253      5.40284347
  H     -1.80515539     19.45999730      3.63900599
  H      1.80510168     21.13891649      1.96023323
  H      1.80499017     22.90264924      3.72415318
  H     -0.00006112     22.94518265      5.44550246
  C     -0.00001140     19.10593026      1.60602211
  C     -0.00000040     18.25657881      0.75662023
  H      0.00000939     17.49999702     -0.00000649
  C     -1.05231372     27.08844291      4.59420091
  C     -1.05227072     26.10193536      3.60765446
  C      0.00000172     26.02825437      2.69492977
  C      1.05227521     26.94097767      2.76861313
  C      1.05232030     27.92752034      3.75512445
  C      0.00000381     28.00113512      4.66781806
  H     -1.88187877     27.14642416      5.31364710
  H     -1.88197308     25.38256433      3.54985423
  H      1.88197674     26.88317931      2.04924099
  H      1.88188617     28.64696544      3.81310757
  H      0.00000464     28.77867106      5.44535697
  C      0.00000057     24.93931203      1.60598326
  C     -0.00000034     24.08993699      0.75660497
  H     -0.00000114     23.33333418     -0.00000073
  C      1.16502826     33.56653547      3.94949793
  C      1.16505232     32.57999766      2.96298175
  C     -0.00018704     31.86157754      2.69491030
  C     -1.16549924     32.12956498      3.41324362
  C     -1.16562086     33.11608394      4.39977865
  C     -0.00033271     33.83446484      4.66779202
  H      2.08365144     34.13280053      4.16072802
  H      2.08388404     32.36899148      2.39688438
  H     -2.08427357     31.56339918      3.20217120
  H     -2.08430144     33.32724781      4.96597528
  H     -0.00039012     34.61200337      5.44532836
  C     -0.00010664     30.77263158      1.60596741
  C     -0.00004393     29.92325372      0.75659195
  H      0.00001194     29.16664839     -0.00001124
  C      5.13933985      3.47545025      4.87385994
  C      5.13936840      2.48895323      3.88730296
  C      5.83333386      2.69492376      2.69492692
  C      6.52729984      3.88729974      2.48895777
  C      6.52732939      4.87385529      3.47545621
  C      5.83333487      4.66780685      4.66781287
  H      4.59224817      3.31296661      5.81377088
  H      4.59218631      1.54908012      4.05000467
  H      7.07448153      4.05000254      1.54908461
  H      7.07442147      5.81376619      3.31297366
  H      5.83333527      5.44534371      5.44535086
  C      5.83333331      1.60598013      1.60598171
  C      5.83333287      0.75660408      0.75660443
  H      5.83333249      0.00000037     -0.00000038
  C      4.75926883      9.61690805      4.56571503
  C      4.75930457      8.63042428      3.57914480
  C      5.83335315      8.52819021      2.69498396
  C      6.90741094      9.41233544      2.79725615
  C      6.90746513     10.39885194      3.78379365
  C      5.83337159     10.50102100      4.66792220
  H      3.91253644      9.69739929      5.26264274
  H      3.91242560      7.93358663      3.49880270
  H      7.75428265      9.33202338      2.10040620
  H      7.75420478     11.09576735      3.86431494
  H      5.83337886     11.27853725      5.44548081
  C      5.83334297      7.43927545      1.60600988
  C      5.83333503      6.58992192      0.75661008
  H      5.83332796      5.83333827     -0.00001478
  C      6.58454428     16.51033543      3.50562588
  C      6.58450758     15.52377471      2.51913261
  C      5.83334971     14.36160537      2.69490754
  C      5.08219710     14.18584792      3.85708293
  C      5.08217091     15.17235264      4.84363220
  C      5.83336022     16.33450133      4.66778062
  H      7.17672391     17.42643275      3.36694712
  H      7.17678050     15.66265493      1.60307223
  H      4.48992003     13.26979230      3.99597693
  H      4.48999542     15.03368766      5.75973429
  H      5.83336436     17.11204327      5.44531354
  C      5.83334391     13.27265463      1.60596944
  C      5.83333938     12.42327304      0.75659770
  H      5.83333535     11.66666439     -0.00000216
  C      6.59654030     22.33683847      3.51245253
  C      6.59650509     21.35027937      2.52595763
  C      5.83334177     20.19493851      2.69490072
  C      5.07018170     20.02600819      3.85024561
  C      5.07015301     21.01251185      4.83679594
  C      5.83334828     22.16783178      4.66777648
  H      7.19818451     23.24755252      3.37915969
  H      7.19824573     21.48377650      1.61528300
  H      4.46843850     19.11533673      3.98375281
  H      4.46851137     20.87922908      5.74751316
  H      5.83335085     22.94537267      5.44531046
  C      5.83333817     19.10598925      1.60596114
  C      5.83333537     18.25660882      0.75658824
  H      5.83333287     17.50000120     -0.00001265
  C      6.75184775     28.06269132      3.61997121
  C      6.75181543     27.07617884      2.63342969
  C      5.83332644     26.02815241      2.69500180
  C      4.91483133     25.96649441      3.74301781
  C      4.91478675     26.95296043      4.72960577
  C      5.83331418     28.00096144      4.66796179
  H      7.47594383     28.88880343      3.57132490
  H      7.47603548     27.12509330      1.80738233
  H      4.19061610     25.14043880      3.79186455
  H      4.19068583     26.90424641      5.55570965
  H      5.83330935     28.77846913      5.44552897
  C      5.83333321     24.93924965      1.60601571
  C      5.83333849     24.08990548      0.75660655
  H      5.83334319     23.33333018     -0.00002665
  C      4.97018481     32.74361486      4.77234898
  C      4.97023353     31.75712018      3.78578967
  C      5.83331546     31.86158209      2.69494145
  C      6.69638480     32.95244287      2.59050670
  C      6.69640833     33.93898759      3.57701597
  C      5.83329027     33.83445201      4.66784056
  H      4.28976919     32.66115613      5.63221988
  H      4.28971590     30.89729032      3.86843299
  H      7.37691236     33.03510760      1.73068675
  H      7.37681402     34.79886840      3.49457865
  H      5.83328035     34.61198369      5.44538374
  C      5.83332937     30.77264572      1.60598897
  C      5.83334021     29.92327534      0.75660603
  H      5.83334987     29.16667668     -0.00000382
  C     10.67760188      3.68422088      4.66509959
  C     10.67763167      2.69771493      3.67855153
  C     11.66669548      2.69492233      2.69492685
  C     12.65577091      3.67853536      2.69770886
  C     12.65582393      4.66508236      3.68421586
  C     11.66671871      4.66780579      4.66781242
  H      9.89786772      3.68631687      5.44044020
  H      9.89776006      1.92244837      3.67665599
  H     13.43563336      3.67663145      1.92243311
  H     13.43556725      5.44041378      3.68630349
  H     11.66672787      5.44534280      5.44535027
  C     11.66668266      1.60597848      1.60598185
  C     11.66667265      0.75660227      0.75660473
  H     11.66666374     -0.00000158      0.00000007
  C     10.75479800      9.44778029      4.73490458
  C     10.75480800      8.46128114      3.74834973
  C     11.66674570      8.52825628      2.69494738
  C     12.57871157      9.58163318      2.62795560
  C     12.57877792     10.56817922      3.61446355
  C     11.66680205     10.50113199      4.66784070
  H     10.03586666      9.39487448      5.56525482
  H     10.03573617      7.63100678      3.80146981
  H     13.29776120      9.63474012      1.79766117
  H     13.29773147     11.39850940      3.56154461
  H     11.66682426     11.27866595      5.44538160
  C     11.66671459      7.43931671      1.60599810
  C     11.66669033      6.58994384      0.75661765
  H     11.66666872      5.83334296      0.00001002
  C     10.57719668     15.47225968      4.54371523
  C     10.57724245     14.48574187      3.55717904
  C     11.66666883     14.36160273      2.69490752
  C     12.75609505     15.22387601      2.81903591
  C     12.75614048     16.21042472      3.80554119
  C     11.66666850     16.33449977      4.66777952
  H      9.71834111     15.57001991      5.22338637
  H      9.71824571     13.80614995      3.45960363
  H     13.61509192     15.12629212      2.13944537
  H     13.61499592     16.89009725      3.90329295
  H     11.66666836     17.11204213      5.44531201
  C     11.66666902     13.27265139      1.60597001
  C     11.66666917     12.42326934      0.75659874
  H     11.66666930     11.66666028     -0.00000072
  C     10.70705126     21.15620270      4.69322877
  C     10.70700042     20.16967538      3.70670209
  C     11.66687396     20.19497527      2.69488430
  C     12.62683852     21.20670335      2.66945065
  C     12.62696973     22.19327409      3.65593390
  C     11.66705600     22.16790384      4.66772475
  H      9.95032941     21.13615180      5.49079558
  H      9.95008234     19.37224051      3.72705418
  H     13.38368489     21.22694998      1.87194503
  H     13.38376331     22.99077018      3.63577755
  H     11.66712774     22.94545864      5.44524481
  C     11.66677348     19.10600653      1.60596420
  C     11.66669511     18.25661089      0.75660651
  H     11.66662530     17.49998974      0.00001916
  C     10.44358311     27.28957966      4.35478054
  C     10.47856012     26.29490083      3.37709875
  C     11.66412315     26.03334855      2.69021939
  C     12.81476234     26.76636314      2.98089378
  C     12.77988313     27.76106170      3.95855898
  C     11.59427293     28.02255506      4.64539842
  H      9.50894140     27.49566945      4.89618121
  H      9.57128728     25.71722996      3.14820158
  H     13.74955102     26.56043346      2.43959473
  H     13.68699991     28.33883153      4.18760917
  H     11.56674412     28.80652519      5.41595791
  C     11.70267736     24.93539511      1.61104761
  C     11.73274965     24.07899142      0.76929361
  H     11.75953732     23.31612765      0.01947943
  C     12.86097500     33.46975617      4.04623626
  C     12.86092642     32.48322173      3.05971671
  C     11.66665120     31.86160564      2.69492545
  C     10.47237455     32.22639780      3.31653828
  C     10.47232313     33.21292149      4.30306858
  C     11.66664836     33.83449430      4.66780582
  H     13.80248876     33.95970522      4.33371597
  H     13.80259621     32.19588644      2.56988205
  H      9.53070588     31.73656057      3.02920370
  H      9.53080825     33.50040191      4.79301506
  H     11.66664724     34.61203337      5.44534161
  C     11.66665276     30.77265893      1.60598331
  C     11.66665398     29.92328048      0.75660843
  H     11.66665507     29.16667464      0.00000577
  C     16.58890475      3.61435886      4.73513915
  C     16.58884810      2.62779350      3.74865051
  C     17.50023072      2.69509155      2.69478845
  C     18.41170812      3.74885758      2.62727073
  C     18.41184107      4.73546986      3.61371243
  C     17.50042030      4.66809970      4.66754931
  H     15.87041100      3.56119847      5.56585180
  H     15.87016144      1.79721234      3.80218525
  H     19.13032011      3.80221916      1.79661381
  H     19.13040953      5.56610680      3.56037887
  H     17.50049501      5.44568586      5.44503801
  C     17.50012608      1.60607888      1.60591228
  C     17.50004446      0.75664899      0.75658885
  H     17.49997176     -0.00000268      0.00003201
  C     16.57348881      9.45981779      4.72281561
  C     16.57350924      8.47332598      3.73625343
  C     17.50003822      8.52821525      2.69495436
  C     18.42658555      9.56949845      2.64007369
  C     18.42664269     10.55603615      3.62658998
  C     17.50007492     10.50107529      4.66786335
  H     15.84305434      9.41643994      5.54362416
  H     15.84294014      7.65258732      3.77982408
  H     19.15714020      9.61307586      1.81932252
  H     19.15709161     11.37683219      3.58321890
  H     17.50008938     11.27860308      5.44541042
  C     17.50001796      7.43928433      1.60599643
  C     17.50000217      6.58991820      0.75660923
  H     17.49998809      5.83332333     -0.00000441
  C     16.32460246     15.64405020      4.37192737
  C     16.32465221     14.65752808      3.38539550
  C     17.49999824     14.36159981      2.69491689
  C     18.67534373     15.05208109      2.99084108
  C     18.67539239     16.03861973      3.97735643
  C     17.49999715     16.33449109      4.66779465
  H     15.39801164     15.87724137      4.91616458
  H     15.39790936     14.11339165      3.15236160
  H     19.60208701     14.81904398      2.44670675
  H     19.60198278     16.58285904      4.21054439
  H     17.49999672     17.11203118      5.44532941
  C     17.49999884     13.27265165      1.60597620
  C     17.49999931     12.42327208      0.75660245
  H     17.49999973     11.66666523      0.00000079
  C     16.64853156     21.06914410      4.78032387
  C     16.64846312     20.08261537      3.79379861
  C     17.50023769     20.19500431      2.69488034
  C     18.35211635     21.29382651      2.58234115
  C     18.35225611     22.28040595      3.56881570
  C     17.50044588     22.16794300      4.66771068
  H     15.97703016     20.98043605      5.64655684
  H     15.97676920     19.21650806      3.88283214
  H     19.02372825     21.38274160      1.71615808
  H     19.02383955     23.14656318      3.47998921
  H     17.50052793     22.94550178      5.44522675
  C     17.50012277     19.10602999      1.60596583
  C     17.50003314     18.25663000      0.75661249
  H     17.49995330     17.50000497      0.00002901
  C     17.95926942     28.26538789      3.57862556
  C     18.22616194     27.27045526      2.63769597
  C     17.51735577     26.06954908      2.67220256
  C     16.54165451     25.86342422      3.64754463
  C     16.27469148     26.85829795      4.58851649
  C     16.98354607     28.05918452      4.55394236
  H     18.51808941     29.21202272      3.55132139
  H     18.99540757     27.43328228      1.86893718
  H     15.98269051     24.91682770      3.67503683
  H     15.50552033     26.69569175      5.35733233
  H     16.77316527     28.84332369      5.29555857
  C     17.81199496     24.97135890      1.63356597
  C     18.04181353     24.11477054      0.82342940
  H     18.24653038     23.35174228      0.10177929
  C     16.67061913     32.72027298      4.79570793
  C     16.67052209     31.73384453      3.80908241
  C     17.50030965     31.86140027      2.69510095
  C     18.33022898     32.97528963      2.56759820
  C     18.33039549     33.96177005      3.55417176
  C     17.50057318     33.83413968      4.66813054
  H     16.01645130     32.61960811      5.67381604
  H     16.01614280     30.85585695      3.90991452
  H     18.98450446     33.07616348      1.68953806
  H     18.98466716     34.83980558      3.45354864
  H     17.50067705     34.61161993      5.44572515
  C     17.50016420     30.77253594      1.60607646
  C     17.50005074     29.92322174      0.75663733
  H     17.49994967     29.16667313     -0.00002256
  C     24.28865727      4.69795693      3.65127172
  C     24.28846960      3.71141801      2.66475666
  C     23.33369482      2.69492193      2.69497894
  C     22.37906774      2.66482203      3.71161736
  C     22.37917549      3.65131714      4.69817624
  C     23.33399022      4.66778648      4.66788340
  H     25.04135945      5.49921190      3.62734023
  H     25.04117923      3.73544937      1.86345007
  H     21.62624175      1.86362766      3.73574522
  H     21.62658971      3.62748213      5.49954342
  H     23.33410664      5.44531604      5.44542869
  C     23.33353178      1.60598853      1.60602351
  C     23.33340460      0.75662046      0.75663826
  H     23.33329132      0.00002386      0.00002636
  C     22.14910901      9.83985439      4.34286983
  C     22.14911027      8.85333265      3.35633758
  C     23.33344768      8.52826838      2.69493705
  C     24.51783341      9.18961206      3.01994090
  C     24.51793132     10.17614789      4.00645907
  C     23.33354433     10.50115647      4.66781799
  H     21.21542978     10.09601510      4.86418317
  H     21.21523933      8.33217078      3.10037479
  H     25.45166627      8.93360164      2.49873422
  H     25.45164864     10.69741641      4.26257215
  H     23.33358242     11.27869531      5.44535401
  C     23.33339433      7.43932198      1.60599460
  C     23.33335272      6.58994378      0.75661948
  H     23.33331566      5.83333815      0.00001659
  C     22.24363075     15.47267861      4.54330482
  C     22.24367102     14.48614978      3.55677965
  C     23.33334569     14.36162723      2.69487722
  C     24.42302570     15.22352811      2.81936370
  C     24.42307666     16.21008781      3.80585800
  C     23.33335637     16.33454627      4.66772721
  H     21.38457944     15.57074109      5.22268498
  H     21.38447416     13.80685148      3.45892189
  H     25.28221835     15.12564193      2.14006418
  H     25.28213218     16.88946676      3.90389206
  H     23.33336058     17.11209731      5.44525104
  C     23.33333979     13.27266375      1.60595186
  C     23.33333519     12.42327222      0.75659006
  H     23.33333110     11.66665473     -0.00000096
  C     22.46514747     21.08119045      4.76832644
  C     22.46539531     20.09442730      3.78203569
  C     23.33283072     20.19559356      2.69433457
  C     24.20005463     21.28342700      2.59277850
  C     24.19987941     22.27023993      3.57901947
  C     23.33240770     22.16900012      4.66669685
  H     21.78129978     21.00132984      5.62571634
  H     21.78160179     19.23698453      3.86240912
  H     24.88401479     21.36349323      1.73543992
  H     24.88356040     23.12773409      3.49885161
  H     23.33224098     22.94674330      5.44402846
  C     23.33306421     19.10636099      1.60567839
  C     23.33324633     18.25675957      0.75652656
  H     23.33340856     17.49995510      0.00012258
  C     22.27938141     27.01987721      4.54106615
  C     22.35045388     26.09096729      3.50253541
  C     23.50434409     26.00223807      2.72379474
  C     24.58721736     26.84232073      2.98344673
  C     24.51623853     27.77126211      4.02195574
  C     23.36230500     27.85992979      4.80065607
  H     21.36971301     27.08972799      5.15487971
  H     21.49660258     25.42885494      3.29811732
  H     25.49702157     26.77263965      2.36973475
  H     25.36993551     28.43344670      4.22654274
  H     23.30632569     28.59206836      5.61917201
  C     23.58274335     24.97687494      1.57745974
  C     23.64389477     24.17709168      0.68331843
  H     23.69836699     23.46466404     -0.11316109
  C     22.34460517     32.84995125      4.66586659
  C     22.34464155     31.86357232      3.67919155
  C     23.33335484     31.86126629      2.69521327
  C     24.32207314     32.84523891      2.69776865
  C     24.32211954     33.83165894      3.68440261
  C     23.33336486     33.83389578      4.66835277
  H     21.56514734     32.85166366      5.44148594
  H     21.56505153     31.08802219      3.67747473
  H     25.10165921     32.84371863      1.92221414
  H     25.10158132     34.60727386      3.68631156
  H     23.33336881     34.61133271      5.44599070
  C     23.33334931     30.77246262      1.60612811
  C     23.33334499     29.92319575      0.75664166
  H     23.33334115     29.16668930     -0.00006038
  C     28.09219506      3.78408093      4.56521357
  C     28.09224757      2.79758804      3.57865247
  C     29.16664468      2.69488733      2.69496928
  C     30.24103425      3.57857501      2.79771003
  C     30.24107169      4.56510059      3.78423845
  C     29.16662961      4.66773632      4.66788933
  H     27.24518791      3.86494005      5.26176472
  H     27.24510700      2.10111116      3.49794091
  H     31.08818076      3.49789501      2.10123671
  H     31.08807290      5.26165530      3.86512913
  H     29.16662367      5.44525974      5.44544076
  C     29.16665299      1.60596252      1.60600525
  C     29.16665948      0.75660115      0.75661329
  H     29.16666526      0.00001052     -0.00000459
  C     28.15807676      9.53778899      4.64484980
  C     28.15811393      8.55129032      3.65829448
  C     29.16667721      8.52823615      2.69494555
  C     30.17524554      9.49157951      2.71801143
  C     30.17529281     10.47811755      3.70452739
  C     29.16668731     10.50110339      4.66784735
  H     27.36297008      9.55585830      5.40420590
  H     27.36287245      7.79200609      3.64040540
  H     30.97048304      9.47369966      1.95872282
  H     30.97040347     11.23746926      3.72260592
  H     29.16669129     11.27863401      5.44539159
  C     29.16667164      7.43930126      1.60599160
  C     29.16666729      6.58993203      0.75660749
  H     29.16666341      5.83333440     -0.00000339
  C     29.88968293     16.52576426      3.49011514
  C     29.88956273     15.53921755      2.50360786
  C     29.16688504     14.36154734      2.69492539
  C     28.44429729     14.17027437      3.87265801
  C     28.44435699     15.15676378      4.85922260
  C     29.16706493     16.33441398      4.66782777
  H     30.45941005     17.45408177      3.33918328
  H     30.45931270     15.69033153      1.57528082
  H     27.87447646     13.24199655      4.02380713
  H     27.87470077     15.00586705      5.78758933
  H     29.16713583     17.11194437      5.44537224
  C     29.16678575     13.27261279      1.60597110
  C     29.16670830     12.42324382      0.75658674
  H     29.16663931     11.66664642     -0.00002437
  C     28.07052180     21.31566288      4.53366103
  C     28.07055440     20.32915312      3.54711679
  C     29.16669792     20.19492145      2.69492913
  C     30.26285471     21.04709374      2.82914986
  C     30.26291389     22.03363356      3.81566404
  C     29.16672449     22.16780154      4.66781808
  H     27.20637074     21.42137960      5.20538250
  H     27.20625069     19.65752567      3.44158372
  H     31.12714796     20.94155205      2.15751030
  H     31.12707542     22.70534291      3.92137214
  H     29.16673496     22.94533723      5.44535725
  C     29.16668325     19.10597948      1.60598227
  C     29.16667181     18.25660472      0.75660369
  H     29.16666162     17.50000216     -0.00000226
  C     28.38477790     26.85672768      4.82588732
  C     28.38482383     25.87023922      3.83932179
  C     29.16662978     26.02823174      2.69494844
  C     29.94842253     27.17261916      2.53699253
  C     29.94844205     28.15916215      3.52350354
  C     29.16660337     28.00109372      4.66785550
  H     27.76843667     26.73206779      5.72795506
  H     27.76839160     24.96820438      3.96416576
  H     30.56486516     27.29749200      1.63496880
  H     30.56477287     29.06124099      3.39887251
  H     29.16659297     28.77862226      5.44540181
  C     29.16664435     24.93929976      1.60599158
  C     29.16665572     24.08993280      0.75660521
  H     29.16666585     23.33333719     -0.00000769
  C     28.30145786     32.74521768      4.77076893
  C     28.30148325     31.75871209      3.78422052
  C     29.16669548     31.86160116      2.69491149
  C     30.03191856     32.95089995      2.59200508
  C     30.03196561     33.93745545      3.57850358
  C     29.16671715     33.83449277      4.66778891
  H     27.61936280     32.66399891      5.62942640
  H     27.61926742     30.90011384      3.86565876
  H     30.71412584     33.03232451      1.73339876
  H     30.71406921     34.79610485      3.49727114
  H     29.16672569     34.61203300      5.44532355
  C     29.16668352     30.77265282      1.60597099
  C     29.16667420     29.92327310      0.75659738
  H     29.16666589     29.16666612     -0.00000415
  C      1.18937539      4.32401418     16.02531497
  C      1.18934087      3.33749012     15.03878503
  C     -0.00003933      2.69489805     14.69494973
  C     -1.18943480      3.03870294     15.33752980
  C     -1.18949987      4.02521449     16.32407225
  C     -0.00006988      4.66776417     16.66785264
  H      2.12703012      4.83049976     16.29627393
  H      2.12716192      3.06670298     14.53241801
  H     -2.12724381      2.53232645     15.06671869
  H     -2.12716664      4.29614948     16.83054837
  H     -0.00008192      5.44529435     17.44539732
  C     -0.00002246      1.60596378     13.60599515
  C     -0.00000931      0.75659504     12.75661057
  H      0.00000241     -0.00000216     11.99999926
  C     -0.92254091      9.45641636     16.72621015
  C     -0.92248619      8.46991473     15.73965778
  C     -0.00003342      8.52825117     14.69493280
  C      0.92240325      9.57299148     14.63661627
  C      0.92242576     10.55953928     15.62312247
  C     -0.00006562     10.50113111     16.66782189
  H     -1.64976186      9.41032091     17.54971954
  H     -1.64981411      7.64645020     15.78593754
  H      1.64974386      9.61928693     13.81316382
  H      1.64963403     11.38306074     15.57704272
  H     -0.00007831     11.27866673     17.44536112
  C     -0.00001564      7.43930927     13.60598585
  C     -0.00000178      6.58993458     12.75660721
  H      0.00001057      5.83333208     12.00000120
  C      0.67777712     16.54835615     15.46764481
  C      0.67774138     15.56182286     14.48112411
  C      0.00000609     14.36152679     14.69498566
  C     -0.67772184     14.14761359     15.89527668
  C     -0.67774285     15.13408768     16.88185658
  C      0.00002081     16.33436470     16.66791678
  H      1.21207364     17.49451090     15.29894025
  H      1.21212002     15.73078834     13.53501011
  H     -1.21210628     13.20149559     16.06420143
  H     -1.21203358     14.96534239     17.82800734
  H      0.00002661     17.11188376     17.44547258
  C     -0.00000204     13.27260810     13.60601551
  C     -0.00000837     12.42325150     12.75661878
  H     -0.00001402     11.66666512     11.99999664
  C     -1.16217831     21.44102398     16.40823815
  C     -1.16208657     20.45452242     15.42168572
  C     -0.00008699     20.19489534     14.69496479
  C      1.16186950     20.92165878     14.95466569
  C      1.16187505     21.90817990     15.94119857
  C     -0.00017317     22.16774855     16.66788062
  H     -2.07824737     21.64559690     16.98104720
  H     -2.07827240     19.88177803     15.21721336
  H      2.07808928     20.71724462     14.38195483
  H      2.07791016     22.48102246     16.14582969
  H     -0.00020713     22.94527364     17.44543039
  C     -0.00003943     19.10596820     13.60600309
  C     -0.00000233     18.25660502     12.75661294
  H      0.00003072     17.50001277     11.99999668
  C     -0.83929249     26.89364744     16.78908082
  C     -0.83927778     25.90715336     15.80252091
  C      0.00004758     26.02827442     14.69498528
  C      0.83939336     27.13579444     14.57386301
  C      0.83944893     28.12233995     15.56037150