16
Energy =  -7450.68954388 au
  O     -1.62859400     -0.03237500     -0.89679200
  H     -0.91390900      0.00412200     -1.55514800
  H     -2.34259200      0.40324900     -1.38186100
  O     -4.83421800      0.53284400     -0.72439000
  H     -3.94630500      0.75632700     -0.41946400
  H     -4.64804100     -0.19772100     -1.33347300
  O      0.09660200      3.64603400      1.05978900
  H      0.28566900      2.89231400      0.46484600
  H      0.05792300      4.36579700      0.41649900
  O     -2.44532900     -1.95876300      1.53165800
  H     -1.46784900     -1.92872400      1.49157700
  H     -2.64246000     -1.81944000      0.59424100
  I      1.26428500     -0.23251600      0.08569200
  O      0.68720600      1.29157100     -0.79868800
  O      1.79362200     -1.32736300     -1.40494200
  O     -0.09297900     -1.17101800      0.88100200
