16
Energy =  -7450.78028309 au
  O     -2.71759600     -1.06780300      1.56662100
  H     -2.26363700     -0.21376400      1.47540100
  H     -2.79485400     -1.32187200      0.62859300
  O     -2.77014300     -0.95784100     -1.30115400
  H     -2.88492800     -0.07097600     -0.91793800
  H     -1.78840200     -0.97075400     -1.36835100
  O      1.60005100     -2.49292600      0.10749500
  H      0.95460800     -2.10353100     -0.52514400
  H      1.36801200     -1.97262300      0.89907000
  O      3.23564600     -0.18730500     -0.14680800
  H      2.83681900     -0.00753100      0.72238000
  H      2.86279900     -1.08051700     -0.30499700
  I      0.22465600      0.76513400     -0.11681900
  O      0.89543200      0.03154300      1.44740800
  O     -1.50908400      1.27287900      0.27516100
  O     -0.00895200     -0.69986100     -1.25092600
