16
Energy =  -7450.77777981 au
  O      3.67152700      1.16397900      0.29466000
  H      2.90631200      1.55673600     -0.18864200
  H      3.18487800      0.56924400      0.89913900
  O      1.20870600      1.89056600     -0.71384100
  H      0.86746000      1.10655900     -1.19628900
  H      0.69050200      1.81002800      0.11259600
  O      3.93762200     -1.40622200     -0.76507100
  H      3.64391400     -1.74140200      0.09313500
  H      3.98268000     -0.44176300     -0.57893700
  O      1.84218000     -0.78296700      1.15779900
  H      1.07764900     -0.22339100      1.42781900
  H      1.71185100     -0.83715100      0.19406900
  I     -1.43644000     -0.31142800      0.06917000
  O     -2.76417600      0.76762300     -0.57902800
  O     -0.48297300      0.71663000      1.31295400
  O     -0.15462800     -0.51125800     -1.26108700
