16
Energy =  -7450.75528833 au
  O      2.89464000     -0.77976000      1.79483300
  H      3.54429900     -0.37913700      1.18673500
  H      2.06060800     -0.60558200      1.33656800
  O      3.70511500      0.24905800     -0.82154700
  H      3.11547300      0.92010600     -0.39929100
  H      3.16590500     -0.03719400     -1.58479800
  O      2.01148200      2.17651100      0.39130000
  H      1.20328500      1.61433800      0.26858800
  H      1.81169400      3.03810000      0.00272800
  O      1.76517400     -1.76600600     -1.31019200
  H      1.36374200     -0.91427000     -0.96246500
  H      2.17209000     -2.07837600     -0.48600600
  I     -1.38157000     -0.16658500     -0.14826300
  O      0.46616200      0.16114700      0.07080800
  O     -2.00797700      1.50379700     -0.57775600
  O     -1.98633000     -0.63587200      1.51453800
