16
Energy =  -7450.71673364 au
  O      2.03404900     -3.11391400     -0.45809700
  H      1.99835800     -2.18112600     -0.09541200
  H      2.28844700     -3.71019200      0.25524300
  O     -0.02952300     -4.80970500     -0.01347300
  H      0.12987900     -5.20992300     -0.87929300
  H      0.40424000     -3.93972400     -0.14729800
  O     -2.66332800      1.89664100     -0.71949600
  H     -1.83340000      1.37203700     -0.60659400
  H     -2.51781400      2.23542200     -1.61336200
  O     -8.41257900     -0.47574500      0.41048400
  H     -7.98423400      0.38228000      0.54482500
  H     -7.67319300     -1.02138900      0.10356700
  I      1.05451800      0.90294400      0.29691200
  O      2.27101600      2.09890000     -0.34989700
  O      1.94203700     -0.70919300      0.47690300
  O     -0.22939200      0.64009200     -1.00867700
