16
Energy =  -7450.78048291 au
  O     -2.38027300      1.93752000      1.03274400
  H     -1.44141200      1.93945900      0.74823100
  H     -2.56515900      0.97513400      1.08547300
  O     -2.32454800      1.00712000     -1.61962200
  H     -2.59323100      1.57188400     -0.86210900
  H     -1.35408800      1.04356000     -1.48791000
  O     -2.83657100     -0.76016800      0.46959100
  H     -2.18550100     -1.48684700      0.54943400
  H     -2.64843500     -0.34829800     -0.40477400
  O     -1.18527800     -3.03272300      0.26677400
  H     -1.76736600     -3.22213800     -0.48296600
  H     -0.48760000     -2.45324200     -0.15727500
  I      1.10220000      0.06275400      0.22521700
  O      2.79409200      0.41684000     -0.37224000
  O      0.44185500     -1.27026800     -0.89229100
  O      0.06900000      1.53349200     -0.25053300
