16
Energy =  -7450.77148819 au
  O      0.21723500      2.49147500      0.11689300
  H      0.13145900      1.74442300      0.78455400
  H      0.20922500      1.93667400     -0.70468400
  O      2.81356400     -0.80643300      1.18561500
  H      2.11086400     -0.13811900      1.08053800
  H      3.49249100     -0.34505300      0.66752900
  O     -2.67263400      2.20891400      0.52312800
  H     -1.80208900      2.60331300      0.30606700
  H     -2.49323100      1.26274000      0.49858300
  O      2.81566700      1.43726400     -0.77512600
  H      2.17554700      2.10630700     -0.44568000
  H      2.22011200      0.87259200     -1.30487500
  I     -0.32526200     -0.91173700     -0.13314800
  O      0.14784700      0.11243600      1.34529700
  O      0.23138200      0.19167400     -1.52080000
  O     -2.15374600     -0.85043200     -0.10315300
