16
Energy =  -7450.77635815 au
  O     -1.22219400     -2.08446400      0.70183400
  H     -0.83614600     -1.36058200      1.23549100
  H     -0.57421300     -2.10727700     -0.03270000
  O     -4.04048200      1.32750100     -0.26797300
  H     -3.12856700      1.55321800      0.01842000
  H     -4.14891500      0.41438700      0.05215400
  O     -3.61529800     -1.46877500     -0.50118600
  H     -3.33856100     -0.75239600     -1.09271900
  H     -2.77995400     -1.68860000     -0.01965000
  O     -1.43285500      1.97294200      0.55097100
  H     -0.98079600      1.32453400      1.12768200
  H     -0.79123600      1.98336800     -0.18516400
  I      1.51381400      0.04222900     -0.02959000
  O      0.90339800      1.48029500     -1.01168600
  O      0.98965600     -1.48075000     -0.92476900
  O      0.46105600      0.05265300      1.51090400
