16
Energy =  -7450.76896747 au
  O     -1.80254600      2.43635400      0.02194900
  H     -1.91897000      2.70213800      0.94467400
  H     -1.08072900      1.75085500      0.11658900
  O     -2.29972700     -1.02576400      1.43498200
  H     -1.45881100     -0.51165300      1.31614800
  H     -2.97003600     -0.39042000      1.09683600
  O     -3.81693700      0.58011200     -0.25075900
  H     -3.14724600      1.30661700     -0.24297900
  H     -3.40873700     -0.09410500     -0.82823300
  O     -2.54883700     -1.85815000     -1.10706800
  H     -2.29844600     -1.66408200     -0.16154000
  H     -3.36630100     -2.36077700     -0.98558000
  I      1.32513100     -0.23606500     -0.10598200
  O      1.68683800      0.96472200     -1.44220200
  O     -0.19796800      0.48683900      0.73991200
  O      2.65634300     -0.11250300      1.14832800
