16
Energy =  -7450.71070055 au
  O      4.97152900      1.02505700      0.72165600
  H      4.84722800      0.58291600     -0.13403000
  H      4.41463400      0.42676000      1.24962100
  O     -1.28483700      5.25999800      0.13551900
  H     -2.12818900      5.35081500     -0.32423400
  H     -1.22204000      4.29585600      0.34028900
  O     -3.19644900     -2.26769500      1.50180300
  H     -3.08909700     -1.34803100      1.21225400
  H     -2.48255400     -2.63866900      0.96036200
  O      3.63455000     -1.39332100      0.02672400
  H      2.65948800     -1.55035400     -0.03886100
  H      4.01846100     -2.20833400     -0.32867200
  I     -0.48480000     -0.16712600     -0.45556100
  O     -0.98534100      0.66174100      1.11212300
  O     -1.84442500     -1.39119600     -0.72959900
  O      1.03953500     -1.15124200     -0.11722700
