5100
Energy =      0.00000000 au
  O     31.18862276     12.05208294     43.56109562
  H     31.50498045     12.69253595     44.20245180
  H     30.37698164     11.65183353     43.88146903
  O     16.67395365     43.38097596      3.19873024
  H     17.61806009     43.53919669      3.12641675
  H     16.52273473     42.52868207      3.61385427
  O     11.30512158     39.02215286      4.62956639
  H     11.96849387     39.70198902      4.49042614
  H     10.70984518     39.29423447      5.33186092
  O     28.16565023     22.96155047     20.62583338
  H     28.30190718     22.33053664     21.33636529
  H     27.91004575     23.80992980     20.99531796
  O     19.99669271     36.76511811      7.09955254
  H     20.20780524     37.45389552      6.46503131
  H     19.48862616     36.07524749      6.66648567
  O      4.39404255      1.36681370      0.04132314
  H      3.57340171      1.60292338     -0.39731206
  H      4.22187057      1.18840431      0.96875341
  O     18.09488222     38.28902210     34.40160114
  H     18.32018478     37.63300880     35.06529182
  H     18.80024486     38.93724141     34.33934940
  O     34.02738578     31.65372447     41.70855219
  H     34.64071013     31.78708472     42.43494622
  H     34.51610713     31.42661439     40.91408856
  O     18.09043840     42.95775556     45.39225148
  H     17.42841021     43.31000952     44.79288863
  H     18.08664004     41.99886977     45.34616870
  O      6.44388438     31.88056500     34.39683441
  H      6.11762151     32.75918537     34.60462949
  H      7.27438638     31.95146431     33.92055748
  O     47.46769587     29.98166661     30.56092172
  H     46.87380608     29.22895682     30.60911820
  H     48.01160674     30.01183944     31.35139662
  O     49.17427317      7.82403298     14.79844057
  H     48.46062695      8.24458179     14.31321096
  H     48.88999330      6.95811378     15.10005109
  O     30.49388777     17.82635924     41.62722780
  H     29.99517042     18.51030747     42.08010287
  H     30.73449293     17.13832643     42.25198376
  O      1.75574209      5.43732327     18.48119168
  H      1.76238032      5.42559838     17.52128623
  H      1.05213068      6.01291286     18.78978138
  O     27.16129885     34.38373722      7.39274749
  H     26.48566777     34.21534038      8.05362959
  H     27.97640166     34.64536374      7.82721150
  O     26.52822761     34.50328197     48.72234210
  H     26.79759908     33.68056138     49.13727564
  H     27.04077050     35.22871125     49.08655653
  O     32.28589164     33.59437542     12.16604287
  H     32.37361597     32.82534131     11.59815997
  H     32.79596015     34.32154320     11.80182160
  O     15.61640504     46.56673014     34.05462559
  H     16.26337257     46.12256701     34.60757418
  H     14.93605303     46.95724986     34.60799300
  O     19.95051338     12.56710173     28.00212450
  H     19.14976089     12.65836972     27.48052541
  H     20.69839124     12.42101875     27.41822514
  O     10.77783528     14.92923004     35.40831883
  H     10.55905736     14.66522862     34.51163634
  H     11.62709629     14.55526418     35.65429703
  O     42.77528488     43.16107052     40.62242381
  H     43.51989570     42.65883794     40.28342944
  H     42.00642196     43.00761856     40.06843616
  O     38.80098562      7.83372969     45.25339620
  H     38.53310756      8.63595613     44.79922212
  H     39.16361603      7.21180359     44.61833154
  O     34.58790438     24.76967019     30.80262462
  H     33.68336202     24.80637443     30.48316270
  H     34.71954890     23.95901400     31.29972245
  O     44.97201186     19.74549705     20.55356198
  H     44.07171910     19.51932610     20.30877705
  H     45.02531708     19.86406749     21.50471896
  O     49.83344254     17.67314792     23.81284355
  H     50.06814241     18.30087146     23.12547237
  H     49.35158245     16.93884047     23.42528267
  O     46.41571788     29.34896682     47.09638814
  H     45.79576968     28.91583267     46.50506839
  H     47.06044409     29.83954882     46.58135666
  O     39.24631935     14.59671364      9.33466161
  H     40.13394112     14.69764192      9.68614574
  H     39.29470801     14.32070255      8.41646968
  O     34.77429088      0.55321143     29.83288519
  H     35.34126184     -0.01715445     30.35712436
  H     34.29573333      1.14999172     30.41291619
  O      0.91392541     -0.28452513     34.46042549
  H      1.11500523      0.40478085     33.82322523
  H      0.81202552      0.10465324     35.33206568
  O     27.98509047     27.44997977     41.09947889
  H     28.73779182     27.08173093     40.63104161
  H     27.25893326     27.58202476     40.48558980
  O     16.20980425     48.89597705     19.92578206
  H     17.11448070     49.00850344     20.22661146
  H     15.82489741     48.12506712     20.34903683
  O      6.05813911     28.46286009     31.00460384
  H      6.14091383     27.68108571     30.45362546
  H      6.66677167     29.13817432     30.69619324
  O      0.34645547      5.43995461     49.54911044
  H     -0.17166041      4.63202939     49.52879366
  H      1.06763236      5.37409091     48.91889948
  O      0.89653120     21.08696381     34.74680577
  H      0.23547272     21.15554807     35.43955240
  H      1.37328095     20.25889965     34.83964670
  O     23.68580837     18.48348122     42.25802865
  H     23.55142649     19.43089159     42.18085942
  H     23.37796659     18.04999618     41.45870133
  O     37.32858781     27.41317670     42.04664104
  H     37.71294669     27.50327317     42.92171297
  H     37.35291955     28.26106878     41.59710018
  O     41.10588533     35.98115655      8.15423732
  H     41.94184027     36.18159941      8.58155687
  H     40.69589282     36.79573175      7.85428168
  O     22.84846247     44.01747298      7.13619058
  H     23.24706273     44.85659277      6.89412483
  H     23.53429243     43.35248901      7.23123575
  O     26.22894143      5.56828499     45.57136826
  H     25.49198012      5.01988267     45.29254407
  H     26.72433373      5.85531663     44.80078451
  O     46.58880753     20.87605011     22.47482702
  H     47.01931587     21.00813172     21.62699624
  H     46.75772839     19.98315528     22.78435015
  O     10.54845340     37.65049586     25.97575861
  H     11.25478207     37.84987502     25.35693088
  H     10.57084234     36.71674748     26.19759800
  O     27.10803875     29.55957702     19.60886535
  H     26.87948711     30.17642044     20.30805656
  H     26.43321336     29.58425798     18.92651534
  O     40.67125774     14.83611185     48.80387285
  H     40.83611810     14.82563809     49.74955323
  H     41.40289504     15.26684236     48.35579016
  O     43.01253457     35.81858920     30.74966381
  H     43.66277117     36.34894327     31.21605092
  H     42.17229021     36.28263503     30.73382431
  O     19.70704422     21.75809106     45.83835336
  H     19.02601542     21.49410853     46.46134053
  H     20.51402583     21.96617654     46.31488365
  O     28.82190265     42.45546728     29.99191590
  H     28.22308993     42.34188949     29.25021285
  H     29.18968191     41.60415542     30.24012253
  O     31.75054858     20.96044739     23.26663886
  H     32.61492232     20.79516222     22.88305203
  H     31.18304980     21.37363801     22.61179640
  O     39.39609304     18.41051497      7.27424923
  H     40.02946896     18.87607122      7.82533210
  H     38.82677623     17.87008884      7.82689557
  O      8.29957834     39.25570477     18.99020885
  H      8.28748721     40.04558789     19.53567972
  H      8.32283936     38.47812746     19.55273213
  O     45.90024811     29.75048714     25.46846007
  H     46.75851654     29.53362884     25.09704683
  H     45.83628278     29.39355174     26.35733889
  O      4.41517095     31.04603819     39.21305707
  H      4.81599417     31.33954414     38.39159800
  H      3.64929505     30.50071235     39.01901108
  O     37.99618031     44.15412603     21.67841411
  H     38.17654017     43.23795894     21.45546076
  H     38.13408705     44.28817702     22.61895228
  O     25.23356968     40.18095612     16.53048822
  H     24.77329048     40.27657151     15.69346925
  H     25.59155693     39.29289542     16.59972205
  O     47.54431783      9.12938784     41.58714917
  H     48.38576163      8.68554570     41.71589887
  H     47.65195963      9.84290920     40.95398213
  O      0.41823594     29.54172273     38.77811035
  H     -0.04466828     29.49578903     39.61787804
  H     -0.21901952     29.53532611     38.06015173
  O     23.25285816     11.03741441     25.47011732
  H     22.63773790     10.30911226     25.35696670
  H     23.33166746     11.52147110     24.64484269
  O     36.66809982     31.34840328     41.59014100
  H     36.41786074     30.61632306     41.02177583
  H     36.81964240     32.13153751     41.05597285
  O     36.48188656     45.30107782     18.07200795
  H     36.25627968     44.79443473     17.28841729
  H     35.75551528     45.26275233     18.69851886
  O      5.90185441     32.05791272     27.20930561
  H      6.47166948     31.28652478     27.16604575
  H      5.36224482     32.10257541     26.41657190
  O     31.20463282      5.33635630     20.99516236
  H     31.53265382      6.09310627     21.48641760
  H     31.49653853      4.52694100     21.42088284
  O     46.39467656     30.00766726     28.82377837
  H     45.92758526     30.69717248     28.34627625
  H     46.82928686     29.42296650     28.19860727
  O     28.05273274     12.64184132     40.13571009
  H     28.18716323     11.85960940     39.59567152
  H     27.46553064     13.24909667     39.67960194
  O      3.44895515     49.62886364     41.23378247
  H      4.33591427     49.65265761     41.60030311
  H      3.49514486     49.70360263     40.27781145
  O     47.03806303     21.67334709     14.75366510
  H     47.04860760     21.31684989     15.64495549
  H     46.25040373     22.20847056     14.63186323
  O     34.09335020     45.41260071      3.88429130
  H     33.42770265     46.02429501      4.20731363
  H     34.51166617     45.77830122      3.10142804
  O     32.79773976      4.43361419     23.86109456
  H     32.96820075      4.25023516     24.78787133
  H     31.85680725      4.35660728     23.68697977
  O     39.88781909     47.68538976     34.42906854
  H     39.97099518     48.49763736     33.92415707
  H     39.89165944     46.93446818     33.83098659
  O     14.22415996     32.07274533     17.49486473
  H     14.12186328     32.87486436     16.97742831
  H     14.33097750     31.32258943     16.90541062
  O     24.65394536     15.24131118      7.99921856
  H     23.87064190     15.26081248      8.55388548
  H     25.43690433     15.18806762      8.55215652
  O      2.37991420     22.69197869     12.09907431
  H      2.09609927     23.43488695     12.63678836
  H      2.67520838     21.97815589     12.66903779
  O     42.83047484      0.30819900     28.35211532
  H     42.25882405     -0.46172445     28.30702352
  H     42.71971878      0.83649490     27.55824093
  O     13.28557083      3.18114767     19.82969182
  H     13.38174161      2.32018978     20.24333744
  H     12.46965326      3.59025972     20.12719115
  O     14.88184486     18.36755711     27.05652164
  H     14.30869057     19.11401866     26.86707687
  H     14.35023740     17.57659394     27.17215373
  O     25.28655141     41.46805655      5.10692540
  H     24.78265843     42.26211275      4.91413893
  H     25.12945743     41.20158835      6.01572471
  O     39.69313129     10.60412892     31.64814251
  H     40.27592823     11.12979147     32.20097759
  H     38.94904181     10.29499363     32.17002967
  O     29.28279225      9.79099505     34.09588560
  H     29.45377873     10.72067643     33.92838587
  H     28.62345061      9.70613711     34.78846609
  O      2.56684725     17.92282748     27.87486248
  H      2.53097104     17.50931214     28.74049402
  H      2.06133129     17.39956992     27.24855973
  O     33.34320029     28.40593701     19.22684818
  H     33.26388591     29.14987848     19.82839645
  H     32.86003201     28.59417373     18.41894016
  O     40.57715449      7.27930553     18.31164201
  H     40.37225590      6.36066114     18.12267362
  H     39.92730681      7.84596521     17.88951075
  O     46.99799667     20.39223678     18.31021719
  H     46.59235676     19.62658667     17.89689387
  H     47.24938570     21.02579088     17.63419000
  O     14.87947675     23.77764104     22.38691871
  H     15.69908806     23.58211590     21.92691086
  H     14.13870034     23.43518171     21.88137749
  O     46.13942059     36.57911582     26.93615414
  H     45.91292859     37.38837982     26.47204946
  H     46.13493443     35.84378809     26.31900504
  O     17.58069120     14.21985495     49.14071118
  H     17.83077663     14.88608647     49.78506579
  H     17.65047782     13.34837456     49.53726100
  O     48.74024262     47.19492724     37.57242781
  H     49.31005548     47.89369125     37.24281868
  H     48.04145880     47.02457484     36.93659668
  O     32.31484772     14.92394972     32.29500940
  H     31.75740525     15.30645168     32.97658856
  H     31.85732772     14.18753605     31.88273478
  O      6.79448382     37.04557270      2.20858249
  H      7.15555634     36.90641762      1.33002543
  H      5.83578399     37.01422460      2.16969882
  O     36.95442111     12.37934946     23.68916406
  H     37.74281746     11.83607265     23.61929633
  H     36.52001959     12.42515193     22.83429714
  O     24.34141828     40.51938544     44.22301853
  H     24.40826691     41.16223824     44.93285763
  H     25.09375943     40.61289955     43.63408907
  O     37.55144476      0.25755230      8.37235379
  H     36.72057865      0.22911253      7.89229891
  H     38.23248921      0.63672776      7.81199280
  O     13.20360066     11.23517624     48.07605515
  H     13.76345037     11.25838321     48.85556123
  H     12.83495010     12.10776031     47.92019041
  O      0.06159239     15.21172954     27.19661451
  H     -0.01051543     14.90133035     28.10218218
  H      0.98497342     15.36391410     26.98258805
  O     26.18963895     33.17588589      5.34312170
  H     26.49197275     34.08380402      5.41979608
  H     26.06343347     32.80505816      6.21956848
  O     14.12994616      6.37911306      9.98545331
  H     13.43023815      5.72216967     10.00628836
  H     14.96988924      5.94731638      9.81326950
  O     28.52462610     33.04611930     22.24933759
  H     28.39034171     33.94150880     21.93020540
  H     27.69426530     32.69593546     22.58020347
  O     28.95610363     33.57275151     50.24543829
  H     28.94611666     33.88966664     49.33931189
  H     28.61467787     34.25555056     50.82751553
  O      2.99258781     18.29651992      3.98390349
  H      2.15264040     18.41100264      4.43443879
  H      3.70930246     18.37185016      4.61813173
  O     46.76086583     18.35250943     49.49406782
  H     47.35846305     18.72589308     48.84209986
  H     45.90733438     18.18519701     49.08775437
  O     36.65449358     29.42035174     45.15203179
  H     36.27985591     28.60770943     45.49967972
  H     36.51081233     30.13324885     45.77871625
  O     40.09618433      6.33070491     34.39163216
  H     39.45078876      6.81992947     34.90711629
  H     40.87665252      6.16799944     34.92641843
  O     32.39233632     16.85595387     43.97703801
  H     32.72600611     16.66515680     43.09734434
  H     32.30424327     16.03743239     44.47086208
  O     30.05036810     13.14943405      9.72944103
  H     29.90589490     13.60111637     10.56413293
  H     29.38886321     12.46270950      9.61799298
  O     22.87895075     23.61429237     43.62513510
  H     22.84238092     23.37776894     44.55482286
  H     22.06206037     24.05114312     43.37323924
  O     41.77504323     30.30006961      0.92946051
  H     41.48764184     31.16352579      0.62377459
  H     42.09977523     30.37072268      1.83010321
  O     22.70228384     46.13542598     18.53275074
  H     21.83274851     46.38320204     18.85541980
  H     22.82006636     45.18714754     18.62492062
  O     43.28252184      8.45326701     40.41253546
  H     43.51335099      7.65457866     39.93252001
  H     42.52107767      8.28235721     40.97163528
  O      5.65362237     25.90207802     13.59920319
  H      4.97618698     25.91194846     14.27933837
  H      5.50577276     25.15839063     13.01041667
  O     38.05495780     19.05310896     29.37238138
  H     37.49315315     19.82902594     29.30970472
  H     38.69945841     19.17983368     30.07249552
  O     17.27578972     15.19180732     44.85824041
  H     16.96644662     14.28637163     44.93629837
  H     16.58906557     15.79202116     45.15782895
  O     16.83936694     42.64030696     18.43265569
  H     17.53578346     42.60171901     19.09228817
  H     17.00626734     41.98451975     17.75170973
  O     48.85595024      4.90503937     31.05973711
  H     48.07956097      4.39079026     31.29290563
  H     49.34700516      5.12266499     31.85541553
  O     26.40872711      6.35197202     12.50342547
  H     26.37615516      7.29006330     12.70473078
  H     25.98832814      5.85762458     13.21087534
  O      4.56532044     41.23383039     17.52235201
  H      5.23143590     41.15362235     18.20897918
  H      3.92103605     40.52845925     17.61695208
  O     29.26303099     26.51872474     27.81341413
  H     29.78593604     25.75204422     27.56770843
  H     28.33053985     26.31980811     27.70164453
  O     19.25985213     36.84600298     19.95524376
  H     19.98631927     37.40551039     20.23949182
  H     18.85829171     37.21817440     19.16667692
  O     48.09036759      7.67384641     33.07919064
  H     47.43843487      7.11464803     33.50800401
  H     48.71992074      7.99009320     33.73130320
  O     30.15694100     11.42043117     41.23911869
  H     30.21757374     11.09032879     40.33969883
  H     29.72856610     12.27955300     41.23696694
  O     16.07119784     38.17689812      6.99248497
  H     15.35080873     37.97908190      7.59540145
  H     16.78668040     38.59735995      7.47507855
  O     49.98876645     37.58874335      3.03028657
  H     49.57964288     36.98882168      3.65822917
  H     49.37424452     37.77315103      2.31617411
  O     48.76319376     43.93629673     33.32335366
  H     48.07952503     43.29674263     33.53588041
  H     48.78940733     44.61480428     34.00198489
  O     41.45836839     18.59415407     13.49234813
  H     42.27723254     18.81519122     13.04267705
  H     40.94538296     17.99330876     12.94697590
  O     49.82098505     42.19414820     36.86651289
  H     49.39543460     41.34870396     37.02692128
  H     49.44971865     42.85637632     37.45406305
  O      6.27139856      4.62302984     42.89968022
  H      5.57604149      4.09871196     42.49573800
  H      6.15576094      5.54600378     42.66230490
  O     35.98917330     38.81077677      4.39740048
  H     36.09008318     38.84793811      5.35135867
  H     35.09167425     38.54835381      4.18007662
  O      9.19034510     46.23040476     36.48237635
  H      9.80985575     45.53637039     36.24547372
  H      8.77597869     46.01729050     37.32171108
  O     30.25418795     23.22163161     48.82808238
  H     30.37870735     22.27036779     48.79355600
  H     29.31764622     23.42452890     48.77044312
  O     46.50466552     11.69410549      4.57960399
  H     45.69583483     11.79886717      5.08598123
  H     46.49522429     10.84448640      4.13277263
  O     24.12534594      8.98563411     36.78871510
  H     24.28115150      9.55275458     37.54746342
  H     24.92830950      8.92124496     36.26650483
  O     18.14991989     35.96382012     25.42851334
  H     18.52226937     35.14568650     25.76557898
  H     18.36026325     36.68287722     26.02877375
  O     24.27050238     28.89211860     20.49549734
  H     23.46317935     28.55300129     20.10201419
  H     24.37921789     29.81592781     20.25810005
  O     35.60479247      9.66376826      1.04667131
  H     35.72975749      8.71218851      1.06857424
  H     35.15509207      9.94640862      1.84634874
  O     49.61292781     34.64690787     29.55156386
  H     49.98873352     35.27301210     30.17475208
  H     48.67836384     34.53096894     29.73797295
  O     12.34036594     14.22109475     37.87448532
  H     12.15071291     15.09197438     37.51783366
  H     12.87085711     13.72597534     37.24596651
  O      1.96259270     16.01298519     35.34596865
  H      1.76551047     15.76860427     36.25318228
  H      2.77328417     15.58126595     35.06668774
  O     49.37481550     41.81228035     31.36525080
  H     50.06301989     41.66319521     32.01774475
  H     48.53724715     41.95924940     31.81076103
  O     25.72643387      0.11674683     37.64021497
  H     25.05529990      0.79493413     37.53419056
  H     25.98408558      0.06242888     38.56339706
  O      3.97856057     43.66983000     19.59687231
  H      3.61085763     43.70799999     20.48283935
  H      4.93720216     43.66513045     19.64770752
  O     38.19679825     42.39000880     33.82011736
  H     37.52676457     41.94343353     33.29740769
  H     38.71317355     41.73992503     34.30214189
  O     31.62684487     11.84986649      4.58144733
  H     32.14129008     12.43904281      4.02483491
  H     31.04982636     11.31338139      4.03296454
  O     30.88158388     39.68692452     40.88864218
  H     30.24359053     40.36718415     41.11626320
  H     30.42404680     38.93147383     40.51240545
  O     30.02644063     18.89196540     17.11247366
  H     30.37674275     18.00343060     17.20939808
  H     30.73133175     19.53038194     17.24344247
  O     11.72573327     13.04282809     20.50391198
  H     12.43123544     13.25252148     21.12026851
  H     10.88100707     13.28881939     20.88800302
  O      7.52619852     17.53899284     29.53270749
  H      7.43016594     18.46425865     29.76990136
  H      7.05594910     16.99471577     30.16849673
  O     31.51122383     38.37432478     36.65187877
  H     31.17186590     38.97630688     35.98550520
  H     30.82732860     38.19732926     37.30192485
  O      1.71281939     16.55457326      7.19977686
  H      2.29964698     16.12813288      7.82857094
  H      0.99110548     16.97743718      7.67085556
  O     45.18899198      5.18574602     10.42059366
  H     45.30345664      5.90341402      9.79333734
  H     44.93451718      4.38772134      9.95155294
  O     20.20181073     23.85322892     47.07930200
  H     19.49160024     24.32358664     47.52198097
  H     20.55052553     24.39529982     46.36785480
  O     48.89342173     22.70672805     25.49776878
  H     48.00548833     22.44164399     25.74857692
  H     49.49246430     21.96465550     25.60766117
  O     22.82148536     24.71069824     16.70861523
  H     22.39595875     25.54297711     16.48989395
  H     23.01124299     24.22608970     15.90192656
  O     27.82771771     36.61306898     19.89077433
  H     27.22214181     36.33127621     19.20123052
  H     27.53607066     37.45455453     20.24916528
  O     18.95269231     20.95762776     32.13811853
  H     18.85724938     21.58427785     31.41714674
  H     18.11177366     20.52321329     32.29855513
  O     49.79185752      6.82276791     18.86484807
  H     50.21566517      7.32923115     19.56161351
  H     49.35909361      6.05470595     19.24484311
  O     43.43032576     34.83527116     27.92818819
  H     43.75580749     34.66016406     28.81418997
  H     42.86561535     34.11222150     27.64551991
  O     11.94023866      5.18443964     25.88970236
  H     11.81259091      6.10150238     25.63612401
  H     12.53672672      5.13962959     26.64056457
  O      8.05146402      6.16344297     29.54448987
  H      8.29785290      6.78174955     30.23629151
  H      7.09476685      6.12518630     29.47472637
  O      2.28074972     44.96447358     24.11375309
  H      1.59405863     44.49584992     23.63370391
  H      2.58296558     44.42549353     24.84844083
  O     38.03534347     18.04674682     34.16593049
  H     37.84392015     17.13773555     34.40811974
  H     38.31988893     18.53244481     34.94357523
  O     19.98975162     12.11560379     22.81556216
  H     19.18711508     11.71745443     23.16031087
  H     20.39166537     12.66451814     23.49287920
  O     42.43740694     17.67387548      4.02156055
  H     41.57811707     17.32540813      4.27013937
  H     42.64624039     17.40206329      3.12484056
  O     22.68907195     38.96119337     14.24944846
  H     23.00571610     38.40629536     14.96598506
  H     23.33024499     38.95885778     13.53496145
  O     26.69415338     24.62775272      2.31810311
  H     26.13146805     24.47674748      1.55509417
  H     27.45012930     25.15948329      2.05855927
  O     18.22569604     37.01205131      4.22815174
  H     17.44571491     36.45800431      4.14902304
  H     18.06431320     37.85572263      3.79946270
  O     11.00777903      1.45583063      4.58205735
  H     11.02186031      1.46567765      3.62221114
  H     10.38589411      2.11434952      4.90019572
  O     43.77768030     31.75379202     36.12582296
  H     44.43394821     32.24322404     36.62718981
  H     43.88689362     30.81373368     36.28695260
  O     19.11562838     26.80297527      6.99090640
  H     19.28135879     25.99002926      7.47386831
  H     19.25002601     27.55453819      7.57287758
  O     34.82668210     22.06488724     39.62680619
  H     34.86795368     22.06013733     40.58590686
  H     34.19668693     21.40417093     39.32988862
  O      1.54780839     15.21590986     48.99360706
  H      1.21049490     15.42353315     49.86808530
  H      1.49290296     15.99516301     48.43561967
  O     22.82138898     27.26204534     32.55215688
  H     23.23940011     27.98093816     32.07251138
  H     22.48310933     26.61496951     31.92889148
  O     29.86638746     14.05233458     44.81861526
  H     29.24949148     13.56239268     44.26998397
  H     29.88884537     14.96928255     44.53523908
  O     16.73767950     10.44169724     48.25142540
  H     17.27500321     11.08991677     47.79023708
  H     15.96472616     10.23140754     47.72234943
  O     43.85473452     32.42254614     32.93292445
  H     44.62106767     32.12850288     32.43505692
  H     43.91219724     32.09420952     33.83319835
  O     12.22079254     47.71298327      4.32003726
  H     12.51253810     46.91544561      4.76771818
  H     12.97994354     48.16706794      3.94708033
  O     40.99311853      2.56961017      2.20934694
  H     41.10527571      1.68631277      1.85045077
  H     41.37777484      3.21119949      1.60768036
  O     22.86100546     28.75606644     35.65682942
  H     22.50996148     29.44660321     35.08979583
  H     23.24706826     28.06296891     35.11630067
  O      6.61765203     29.39118931      7.15093479
  H      6.33677851     28.48523942      7.29914031
  H      6.90773388     29.77660911      7.98093726
  O     12.64710758     25.22022645     48.57281879
  H     12.82045486     25.31948604     47.63383090
  H     13.36303230     24.72744746     48.98052048
  O     12.50596188     22.50547608     37.73482768
  H     12.42289059     23.40742860     37.41673834
  H     12.33712793     21.89456459     37.01379907
  O     26.10957308     36.42938015     22.27883073
  H     25.77255878     35.75439846     21.68518009
  H     27.06939857     36.41287565     22.27091649
  O     44.86234187     36.84575505      9.60245662
  H     45.03216891     37.60139304     10.16970438
  H     45.54176550     36.79355713      8.92624740
  O     19.09157065     44.05996450     28.16393831
  H     18.26941728     43.99250573     27.67290558
  H     18.90201140     44.08223204     29.10477382
  O     29.34977088     46.38181381      4.81067763
  H     29.42003074     47.18751395      5.32789212
  H     28.52204275     46.38432872      4.32440628
  O      2.11785178     20.79952208     41.59339745
  H      1.95008200     21.65890165     41.98699633
  H      2.23878099     20.14731283     42.28737095
  O     14.82498802     27.12301573      4.28575758
  H     14.80551537     26.16337238      4.30323481
  H     15.30824386     27.44768509      5.04907508
  O     13.14784936     45.86108451     18.40370920
  H     12.60585059     45.15423616     18.04565509
  H     13.24685889     45.74056177     19.35095330
  O     25.24191653     42.56257277     29.00692416
  H     25.42418235     43.47402690     29.24698778
  H     26.02232342     42.17515529     28.60384504
  O     14.34185881      9.80812515     13.04554203
  H     13.68362953     10.15266909     13.65350888
  H     15.03706387      9.36906321     13.54103628
  O      4.20453928     15.06029449     46.82564945
  H      4.28015768     15.65498009     46.07582887
  H      4.92792758     14.42940931     46.80852473
  O     49.65983653     35.44357973      9.09039880
  H     49.82835826     34.98190656      9.91505528
  H     49.26517691     36.29864484      9.27669813
  O     38.86040238     31.51767296     24.94240168
  H     38.50378008     31.90749212     24.14086468
  H     39.81084051     31.41566974     24.85372973
  O     23.82102701     42.29505029     16.58352128