5100
Energy =      0.00000000 au
  O     49.92411466      9.26113188     29.09697414
  H     50.48069018      9.31236395     29.87748613
  H     49.07601285      9.67172501     29.28064944
  O      7.99190270     13.91407308     17.29306850
  H      7.56623710     13.13416552     17.65659703
  H      7.36033323     14.63613623     17.25639661
  O     33.94141635     20.01019207     39.38696701
  H     33.26421583     20.53702055     38.95632654
  H     34.65803123     19.84336382     38.77033791
  O     48.75269136     11.17506898     24.93168151
  H     49.56039070     11.00542735     25.42203189
  H     48.12438195     10.46774686     25.09453940
  O     13.23014022     20.27432539     14.42295483
  H     12.49746996     19.74438755     14.10052625
  H     13.04418090     20.56735304     15.31802686
  O     12.94418356      9.22973012     33.74813052
  H     12.36733094      9.07055990     34.49880082
  H     13.59293860      9.89872445     33.97870261
  O     36.96114086     46.81702944      4.81217938
  H     37.89309085     46.74136115      5.02976506
  H     36.86652891     47.19727365      3.93578739
  O     12.20654502     24.87016090     47.24405636
  H     11.98439845     24.82864289     48.17707681
  H     12.18219516     25.78342599     46.94917678
  O      1.27067117     46.66747040     22.98854304
  H      2.05366438     47.08572062     23.35404049
  H      1.26045389     45.73877296     23.23147653
  O     25.99563760     23.84653988      0.80687897
  H     26.85030516     24.09462309      0.44688162
  H     25.37750933     23.69350895      0.08847868
  O     34.33098296     12.57610301     44.68505429
  H     34.21544296     11.93914948     43.97615323
  H     33.90249923     12.25155655     45.48046065
  O     10.31078946     40.49703546     23.55728919
  H      9.50462067     40.89866694     23.22504825
  H     10.83480282     41.15986213     24.01299830
  O     23.90565689     11.25215714     35.94195461
  H     23.67040478     12.01130648     35.40348574
  H     24.12235009     10.51021890     35.37259381
  O     27.66167161     23.53374324     29.24998425
  H     27.71574436     24.21608901     29.92309672
  H     27.83084695     22.67673398     29.64812347
  O     28.52999755     34.84275746      8.22524788
  H     28.67676789     35.37099221      9.01330024
  H     28.67349681     33.91577976      8.42950335
  O     37.16202113     46.84897628     38.40314999
  H     37.13904164     46.70641187     39.35222709
  H     36.30771740     46.62793763     38.02511948
  O     39.07512313     14.68843830     26.06333045
  H     38.51376499     15.40148964     25.75022530
  H     39.43225545     14.20847909     25.31253376
  O      2.21441650     49.02709686     37.29211693
  H      2.02558534     48.77420105     38.19875164
  H      2.39347981     49.96943559     37.25294995
  O      9.73064457     13.22380914      1.85618817
  H      9.49016569     13.38337230      0.94059574
  H      9.65291305     12.28664655      2.04927906
  O     30.04897127     12.40998280      7.32895402
  H     30.49066207     12.68651962      6.52270552
  H     30.50686269     11.65303865      7.70174216
  O     41.89455056     45.90607078     33.28473639
  H     41.21920322     45.85843103     32.60412164
  H     42.67253083     45.42180497     32.99867115
  O     45.50830537     10.17642180     41.61938327
  H     46.07603716      9.79714605     40.94452734
  H     44.89889211     10.79734882     41.21359377
  O      6.95825419     47.01374337     39.58374496
  H      6.01439742     47.05951112     39.75297769
  H      7.12033355     47.11375874     38.64282668
  O     13.93200738     26.74595338     27.76719340
  H     13.16111854     26.51891495     28.29234477
  H     14.71324031     26.73873317     28.32506703
  O     42.80929644     47.49857323     35.25349884
  H     43.04289210     48.41946410     35.11568345
  H     41.86531260     47.42785785     35.41316682
  O     21.14289810     37.47409503     23.36397018
  H     21.90480415     38.01576739     23.14558924
  H     20.73251978     37.80658093     24.16562021
  O      7.15771937     13.48125273      2.10138104
  H      7.92050789     14.04169843      2.26155064
  H      7.28608403     12.99057075      1.28630208
  O     33.03934421     33.73454629      6.44693291
  H     32.99236910     34.66596726      6.21923065
  H     33.76589415     33.32473900      5.97176645
  O     13.64310628     23.25581823     23.62930836
  H     14.35645771     22.90271032     24.16600617
  H     13.39772322     24.12518973     23.95423967
  O     49.70817823     39.65524209      8.48279812
  H     50.02449685     39.04325825      9.15139241
  H     49.34957635     40.43749067      8.90834700
  O     14.64773541      9.82486014      5.53737809
  H     14.61336199     10.77642844      5.65959204
  H     14.89979417      9.40464589      6.36289997
  O     12.44332717      2.23301728     14.90522406
  H     13.31519857      2.10251799     14.52521062
  H     12.45039131      3.01463614     15.46255884
  O     21.41695560     44.40697543     43.89003974
  H     22.15661456     44.15285732     44.44675205
  H     20.67333691     44.66112100     44.44143912
  O     21.38098196      2.19828190     15.96540402
  H     20.66662817      2.76274059     16.26984624
  H     22.00682929      2.71943767     15.45716020
  O     33.27351932      2.56031888     13.70861189
  H     33.53362113      3.47923509     13.61093872
  H     32.97318577      2.22060702     12.86244665
  O     35.91557070     31.24869353     14.26347333
  H     35.25306777     31.74248049     13.77473586
  H     36.63420735     31.00702019     13.67461395
  O     37.09242733     32.10924145     47.51875063
  H     37.41839939     32.83380720     48.05758893
  H     36.78018937     31.40193871     48.08781152
  O     11.32687190     32.42859476     24.95200061
  H     10.69431673     32.84850453     24.36450615
  H     11.98424687     31.95974263     24.43273591
  O     48.35594980      2.38339667     42.69758744
  H     48.53343946      1.51750887     42.32297332
  H     48.75420467      3.05955865     42.14459734
  O     21.88532793     37.75457200     43.60037926
  H     22.13623363     37.84638002     44.52245172
  H     20.95690527     37.51721113     43.54301042
  O     17.88465780     15.14363833     45.84845810
  H     18.27404381     15.82754568     45.29868607
  H     17.69857327     14.36908413     45.31269851
  O      4.71810565      7.41605023     32.29564435
  H      4.72922910      8.18949434     32.86420436
  H      4.88946557      6.63037806     32.82000588
  O     38.95221311     34.31971962      5.94236711
  H     39.07988321     35.18695548      5.55095644
  H     39.78439683     34.00536455      6.30327035
  O      1.99001694      9.62304117     37.04812536
  H      1.10767030      9.97531757     36.91040914
  H      1.95278747      8.66395219     37.06715926
  O     23.30376645     27.89251190     38.81664579
  H     23.12368297     28.26059338     39.68479668
  H     22.52690206     27.42674371     38.49861792
  O     38.81349054     31.97066528     12.40887441
  H     39.49227533     31.51754051     12.91437333
  H     38.13487079     32.29718785     13.00423838
  O     30.48488761      6.80132276     27.72113717
  H     30.00458153      6.13123072     28.21295293
  H     31.42872231      6.66434118     27.83073692
  O     24.54131843     21.27898510     49.26489574
  H     24.25414501     20.92959119     48.41810454
  H     25.50062711     21.30139073     49.29361597
  O      3.61341452      5.98896729     17.24270329
  H      3.04453259      5.25670650     17.49123391
  H      4.14089167      6.25600253     17.99904981
  O     31.83263792     41.14146069     11.34245109
  H     32.55011369     40.81991687     11.89330325
  H     31.04722411     40.61173861     11.49775615
  O     35.02843948     44.22355963     50.22477783
  H     34.76075820     44.46414988     49.33479857
  H     35.15615799     45.01888250     50.74703209
  O     43.28074467     36.88607878     40.56445372
  H     43.64527428     36.13403998     41.03684743
  H     42.59932441     36.58462703     39.95914944
  O      3.69637970     20.19906036     24.41110497
  H      3.04552648     20.71739412     24.88997887
  H      3.24923259     19.60606300     23.80281754
  O      3.17345108     30.43138768     15.68520244
  H      4.11043520     30.61978342     15.77557835
  H      2.70385004     31.23937307     15.46557896
  O      9.86436044     26.97395432     41.56341670
  H     10.25490937     27.12485006     42.42730443
  H      8.94000521     27.23258874     41.58001924
  O     44.90072398     29.49150776     26.11124783
  H     45.29508566     30.26723456     26.51662025
  H     44.21183853     29.76416590     25.50076083
  O      1.26950865     25.47799029      8.09065843
  H      1.64068515     25.72515910      7.24051986
  H      0.37018933     25.16495538      7.96886384
  O     20.79235988     41.05909317     23.22558974
  H     21.11064186     41.71770308     23.84730477
  H     20.27506178     41.48873778     22.54045604
  O     16.71829725      4.49563414     41.58711413
  H     16.15011565      5.03120185     42.14562725
  H     17.26688479      3.93065210     42.13615602
  O     37.81168407     33.45205444     44.75705291
  H     38.11581066     32.74361572     44.18502005
  H     37.55404608     34.20698750     44.22291928
  O      4.65913693     26.61873122     42.86166326
  H      4.88505664     25.85048914     42.33216879
  H      3.72540032     26.59198649     43.08306938
  O     49.63167501     13.36991785     34.69762453
  H     49.57791018     14.15548415     34.14844794
  H     49.78155699     12.60082313     34.14298166
  O     46.96089762      1.73098762     31.16056651
  H     46.99825487      1.07166457     31.85734306
  H     47.78216606      1.71892119     30.66360319
  O     31.23658247      3.98113098     27.14696393
  H     31.02977767      4.33681725     28.01432721
  H     32.04691473      4.38020096     26.82184122
  O     21.98662688      7.21467201     30.68501852
  H     22.87943047      7.40432049     30.98256719
  H     21.65379535      6.43978193     31.14367803
  O     42.76400372     49.55448892     39.83193146
  H     43.44907892     49.59744444     39.16079303
  H     42.52469480     48.63788038     39.98736642
  O     34.07441998     40.00999089     24.04978612
  H     34.24792497     39.30288145     23.42409270
  H     33.79627471     39.63468890     24.88846582
  O     11.10737979     25.48380807     36.79803182
  H     10.44068331     25.60608531     37.47785833
  H     10.85929280     25.97805084     36.01331727
  O     23.94336843      1.32513415     14.03254496
  H     23.49877131      0.87993278     13.30747314
  H     24.64690515      1.87856280     13.68562594
  O     37.96604621     32.10409787     40.62352917
  H     38.52508434     32.71728942     40.14075335
  H     37.60574897     31.45319591     40.01680639
  O     35.46644701     29.13697762     14.49699548
  H     34.90128807     28.55988558     15.01580194
  H     36.25407368     29.35250580     15.00176457
  O     17.61229878     49.20947895     33.84112852
  H     16.84804108     48.83663835     33.39559506
  H     17.57932659     50.16736082     33.78658353
  O     26.27507114     45.28122608     23.22195922
  H     25.72567267     46.06825097     23.20316685
  H     27.15319826     45.51080189     23.53466949
  O     19.95941815     38.23617987     35.74754742
  H     20.31408564     37.35777712     35.90317380
  H     19.17581841     38.36555859     36.28683641
  O     18.36551228     28.81243985     27.58363615
  H     17.52920710     29.10886855     27.21713420
  H     19.04839919     28.87005005     26.91136645
  O      8.98683937     20.74088063      5.95091672
  H      9.81810077     21.01412281      5.55602028
  H      8.28528975     20.80704317      5.29895763
  O      1.39332045     26.11448758     40.12308193
  H      0.89730997     25.51607690     40.68653403
  H      1.80190641     26.79651919     40.66112505
  O      3.31322264     14.80059001     12.90207727
  H      3.91940927     15.04204300     12.19791946
  H      2.52042294     14.41341531     12.52370658
  O     14.55955768     18.47962071     44.42318341
  H     13.91680985     18.01662760     44.96550491
  H     14.84491537     19.27714332     44.87498944
  O     13.63254425     10.73053142      7.99254542
  H     14.03787099     10.15486781      8.64517214
  H     13.03804706     10.21885205      7.43904988
  O     32.30677806     47.38670594     39.61878336
  H     32.39548296     46.55799325     39.14237312
  H     33.07563746     47.51856665     40.17830814
  O     13.19746402      7.36381680     42.86291715
  H     12.54028794      7.14856484     42.19704464
  H     13.72468909      8.10828721     42.56392294
  O     37.63843874     24.35524392      9.25884605
  H     37.49683669     25.25766688      8.96358064
  H     37.58068732     23.75965992      8.50815006
  O     46.52909205     17.57808474     25.39252931
  H     47.30893161     18.13025061     25.48506646
  H     46.60006907     17.05508599     24.59063495
  O      1.55326940     35.53546299     25.36995521
  H      0.87666071     36.14189854     25.06005748
  H      1.14338620     34.82781156     25.87277250
  O     32.94259403     42.76271613     19.97895413
  H     32.14355416     43.26839739     20.14454928
  H     33.46941495     43.20589780     19.30988781
  O     23.73925376     11.57374041      9.40751863
  H     24.31554440     12.27362806      9.09185048
  H     23.96707469     10.74968048      8.97091486
  O      8.23363007     44.76476766      7.26090239
  H      7.33175954     45.09372652      7.26485573
  H      8.84139165     45.49410733      7.40334367
  O     46.85990980     46.32420813     24.25735321
  H     46.53751688     47.22845008     24.26040308
  H     46.35461718     45.80172427     24.88448157
  O      8.98082428     12.27570840     40.84566909
  H      9.71435709     12.28276250     41.46492659
  H      9.24652849     12.70521230     40.02925763
  O     48.30389582     26.94711559     35.83414250
  H     48.18612708     27.41312689     35.00314070
  H     48.05984621     26.02544336     35.72207069
  O     28.07107839     26.12628538     38.47882613
  H     28.70133806     26.59319118     39.03233470
  H     27.36927816     25.76611888     39.02596097
  O     23.43387281      7.20543476     13.21258617
  H     22.68154631      7.49643354     12.69208203
  H     23.13071260      6.89842670     14.07016412
  O      2.90687214     12.17287952     27.36509166
  H      3.45307993     12.87435643     27.72728941
  H      3.43303429     11.63020869     26.77326249
  O     49.92545921     14.13739176     50.20945054
  H     49.85776479     13.37755462     49.62664269
  H     49.97587059     14.93995876     49.68509865
  O     13.58283220     23.89437566     21.21336955
  H     12.80732584     24.10911762     21.73689201
  H     14.32129437     23.70568943     21.79703996
  O     28.83975116     14.24741939     48.35643023
  H     29.71162083     14.59816235     48.55244725
  H     28.35840691     14.10912070     49.17544256
  O     33.50359212      5.35295390      7.39926538
  H     33.42023766      4.47721789      7.78363302
  H     34.32657121      5.41044200      6.90834733
  O      5.98103765      5.88221088     22.52316820
  H      6.37605708      6.75542249     22.46784063
  H      6.49533048      5.26402895     21.99880765
  O      6.23598481     25.88706331     45.42864910
  H      6.18960340     26.01946059     44.47895456
  H      6.88908110     26.48239264     45.80368006
  O     47.48691773     22.50637406     17.69215213
  H     47.36342455     22.04107502     18.52272196
  H     46.63315025     22.66041336     17.28111323
  O     33.13109339     38.76530093     46.54003332
  H     33.37404495     39.39487353     47.22283116
  H     33.69690626     37.99216688     46.60102138
  O     19.95996154     40.29831494     17.59781011
  H     20.40066648     39.93013293     18.36710925
  H     20.23324782     41.21076984     17.47805758
  O      5.53648463     16.93535748     30.03555313
  H      4.78673810     17.42520776     30.38127967
  H      6.19897024     17.54997080     29.71157276
  O     26.04967664     28.21618375     12.90726727
  H     26.76620489     28.63041677     12.42085358
  H     25.41121491     27.85246220     12.28947018
  O     40.76958272     33.17419045     28.89720301
  H     40.31496697     33.23672814     28.05398681
  H     41.42654995     33.87140425     28.95954868
  O     22.38945289     19.72237939     41.10351419
  H     22.83335705     20.32370801     40.50105839
  H     22.19782537     20.17720442     41.92692969
  O     41.58747777      0.07420585     18.06759461
  H     41.55319192     -0.40711111     18.89750934
  H     40.70561326      0.37288222     17.83369846
  O      4.93156887      7.52090749     13.23592775
  H      4.90435431      8.33142536     12.72219616
  H      4.06027097      7.34054971     13.59635951
  O      9.96974848     18.94472069      6.15553458
  H     10.76115490     18.40311608      6.11148530
  H      9.82804747     19.23207150      7.06049333
  O     28.94624258     40.16627020     40.31444125
  H     28.73658800     41.09665344     40.42413164
  H     28.33074735     39.77015278     39.69326766
  O     32.02745841     24.71058262     41.45665256
  H     31.42531027     25.26190035     40.95161158
  H     31.95438945     24.92694848     42.38909384
  O      4.84229395     35.81354282     32.55356140
  H      4.53255482     36.70760434     32.39134032
  H      4.29092273     35.39964849     33.22160426
  O      5.64401854     35.96565451     30.27815241
  H      6.00183111     36.42261123     29.51345592
  H      6.32211281     35.89194105     30.95369256
  O     40.53828555     45.66145601     20.49289342
  H     39.66701639     45.32640430     20.26877201
  H     40.45593716     46.53846699     20.87456144
  O     39.78478672     40.74904854     35.76146056
  H     40.34218249     40.31409181     36.41086229
  H     39.41426890     41.54896379     36.14152915
  O     10.81967844     33.61946056     10.87353259
  H     11.55462893     34.00228177     11.35819299
  H     10.28992605     33.08184113     11.46676759
  O     10.37679532     48.13020937     26.58956026
  H     10.29736242     47.20448395     26.83106154
  H      9.50187740     48.51844209     26.51611653
  O      4.63835825     11.15320164     30.10895077
  H      4.03220291     11.33468814     30.83091916
  H      4.79840881     11.96026210     29.61434260
  O      6.17027939     49.99303085      7.63663217
  H      6.66672328     49.17451218      7.56472486
  H      6.02701493     50.35893192      6.76073737
  O     19.24692983     21.57517283     12.08418931
  H     18.46371892     21.23761275     12.52490903
  H     19.10783374     21.56912994     11.13433892
  O     10.36670364      6.16927706     28.22737658
  H     10.71438747      5.39903642     28.68283822
  H     10.77294140      6.23938800     27.36039599
  O     40.51604156     45.08403636     41.79970468
  H     41.32061236     44.57697235     41.93067005
  H     40.29017149     45.54226936     42.61248093
  O     23.27493488     31.28522408     10.81298774
  H     22.84081981     30.89469442     11.57497901
  H     23.90629638     30.66046776     10.44875952
  O     18.53671568     34.49755330     49.15182023
  H     18.24927786     33.59991553     48.96954038
  H     17.78805736     35.09432508     49.08129250
  O      9.20612443     26.07351232     30.32627607
  H      8.57406125     26.63526776     29.87182368
  H      9.92028190     26.61179210     30.67532330
  O     36.96711648     49.51639937     47.00565967
  H     36.36745004     49.09321224     46.38686017
  H     37.71984141     49.87380503     46.52893504
  O     43.81807657     45.90366039     22.68814319
  H     43.89902771     46.85585848     22.77960744
  H     44.54312753     45.57019278     22.15456990
  O     26.61169104     38.27101029     42.89238658
  H     26.82665952     38.13125217     41.96726160
  H     26.25898411     39.15618992     43.00924050
  O     20.43086726     27.72192495     28.96586083
  H     19.82445429     27.46372687     28.26786580
  H     19.95112660     28.19900809     29.64691925
  O     17.65877300     37.45836710     12.48575063
  H     17.30621740     37.93562856     13.24042014
  H     16.93476753     37.12545294     11.95041500
  O     49.52844292     17.77987263     23.49269295
  H     48.63834193     18.11772115     23.61589441
  H     49.63097363     17.46845607     22.59041406
  O      2.06347637     37.01482118     26.81166436
  H      2.32970292     37.29985460     25.93446462
  H      2.36860023     37.65173427     27.46192673
  O     11.88650013     35.08558358     32.44512710
  H     12.58251168     34.48105473     32.71291954
  H     11.21522277     35.12511246     33.13027247
  O     39.96954436     35.55684521     31.17165505
  H     40.66300159     35.80517232     30.55598410
  H     39.33253023     34.99323579     30.72650628
  O      8.60877178     42.03320070     46.36730575
  H      9.31959758     42.21249170     46.98712945
  H      8.83588449     42.39257335     45.50656705
  O     29.58271480     41.39026940     38.44527531
  H     30.30728228     41.18491494     37.84993381
  H     28.75137874     41.33889382     37.96794847
  O     26.62557228     49.46496630      3.14789224
  H     25.99005251     48.74671587      3.10510277
  H     26.62838089     49.94047728      2.31393695
  O     31.82876075     27.37143076      6.37031565
  H     32.72348341     27.19144957      6.66810439
  H     31.35136867     27.84318014      7.05671883
  O     40.06565815      6.08181792     39.86951965
  H     40.44408510      6.72115518     40.47750066
  H     39.84491152      5.27818151     40.34600622
  O     31.21123320     18.82238374     19.05903504
  H     31.74254018     19.31384932     19.68972870
  H     30.28108396     18.93067618     19.27044732
  O      6.62344277     13.46346801     36.72052733
  H      7.06234147     13.77673483     37.51477656
  H      5.86666277     12.92518297     36.96370064
  O     27.49527382     46.22946728     25.47010841
  H     26.60223171     45.87862844     25.43867755
  H     27.55243799     47.01055635     24.91492185
  O     40.43464617      4.66927025     22.29597793
  H     41.30614212      4.88769724     22.63418565
  H     40.17638939      3.80064814     22.61283605
  O     19.49490236     19.44602656     34.85132690
  H     19.00273837     20.25171835     34.67744377
  H     19.25059635     18.77621948     34.20846373
  O     10.93554081      5.05927185      7.33100197
  H     11.60324888      5.58403690      7.77864868
  H     11.36231405      4.38181004      6.80136993
  O     28.93324429     24.42411737      3.52945710
  H     29.28237153     24.30910858      2.64261825
  H     29.04896533     25.33685429      3.80353732
  O     45.44023250     30.70128448     20.28644637
  H     45.27955726     29.89401985     19.79237422
  H     45.77666089     31.37784419     19.69426152
  O     39.57183531     31.61999301     45.55989949
  H     39.29971360     30.98950376     46.23074454
  H     39.65673654     32.49105345     45.95441879
  O     45.96238380      1.40644340     17.16251174
  H     46.56666151      1.77692722     17.80996074
  H     45.06325253      1.46313691     17.49409704
  O     32.78216150     41.62755913     23.67486865
  H     33.23100937     42.36192922     23.24962029
  H     32.48166068     41.89674520     24.54598180
  O     29.52058770      0.45419304      0.72610199
  H     28.79259481      1.07374122      0.81434261
  H     30.32275857      0.93201237      0.50291912
  O     29.54466898     36.35785285     23.96951948
  H     29.80777883     36.29931449     23.04813656
  H     29.61093778     35.49133274     24.37738141
  O     31.97437217     41.45601842      9.21510346
  H     32.22524605     40.90394507      8.47087411
  H     31.24414912     42.02478805      8.96039695
  O     34.96656871     13.10313406     42.36129650
  H     34.92659207     13.18848381     41.40593411
  H     35.78159425     13.49440639     42.68415765
  O     19.26212830     48.18411941     22.16697584
  H     19.63135043     48.04007514     21.29260392
  H     18.40466627     48.60831121     22.08684979
  O     42.71381970     19.09123468     22.45871278
  H     43.35929367     18.58868161     22.96111080
  H     41.93328563     19.23956153     22.99756872
  O      3.22136785     14.20147231      7.16957247
  H      2.76763455     13.43220014      7.52163273
  H      3.98007296     14.40622766      7.72097233
  O     37.82939514     35.87007591     39.47035843
  H     38.68586345     36.27431643     39.31335001
  H     37.79071691     35.54094736     40.37134589
  O     46.82495231     28.76895756     38.44860470
  H     46.31037077     28.05424505     38.06651589
  H     46.74536295     29.55116922     37.89777763
  O     23.30828244     38.40829540      1.96137264
  H     23.26825990     38.28049938      2.91198632
  H     24.03511432     38.99789197      1.74761741
  O      8.02250344     37.65395345     34.67904347
  H      7.20642142     38.03577083     34.34764399
  H      8.63501444     37.52555007     33.95107173
  O     41.64027030     23.11054250     32.85819778
  H     41.69732200     23.94361269     32.38455322
  H     40.94992324     23.16648484     33.52294690
  O     33.42658708     29.66601857     13.72194460
  H     33.66035811     30.54376276     14.03261525
  H     32.54547806     29.68492624     13.34130122
  O     20.37162890     38.84348688     14.97289558
  H     21.01880837     38.33015685     15.46202850
  H     20.37619366     39.74988675     15.28915250
  O     47.92809441     37.81182930     25.33121173
  H     47.13206628     38.12852727     25.76438794
  H     48.67520355     37.90329287     25.92708281
  O      4.47127094     33.64299804     30.86807417
  H      4.88401596     33.96900142     30.06497806
  H      4.92554703     34.00595253     31.63194410
  O     48.51372098     28.65224057     48.49015552
  H     48.06749648     28.06938932     47.87147296
  H     49.06889509     29.26831272     48.00658874
  O     33.30308655     38.37821580     31.96554925
  H     32.65055701     38.80553665     32.52519387
  H     34.09010912     38.18572833     32.48047065
  O     48.52403721     10.22381863     22.28995691
  H     48.78308000     10.87637193     22.94468664
  H     48.10256301      9.48057439     22.72761833
  O     43.42350307     42.49261624      9.59902581
  H     43.27001653     41.54665931      9.65565939
  H     42.67716985     42.91297384      9.16556736
  O     31.54223779     15.15189921      2.06288812
  H     30.76098961     15.36015267      2.58046110
  H     32.26768056     14.93208489      2.65196745
  O     17.75274226     35.21825763      0.18784039
  H     17.43519376     35.79835046      0.88372491
  H     18.68853385     35.37516608      0.04198482
  O      6.20915849     29.51139236     28.34976075
  H      5.72168545     28.93099951     27.76059679
  H      5.59257388     30.01017195     28.89072503
  O     14.37700344     39.78183671     22.79345128
  H     14.50474297     40.11414818     23.68499583
  H     15.09534812     40.08399367     22.23284259
  O     42.27971866     43.88321557     13.79692566
  H     41.83649978     43.67261159     12.97181779
  H     42.14228036     44.80978994     14.00709379
  O     34.47951204     40.60267548      0.34925873
  H     34.18268876     41.50554390      0.21389055
  H     33.88314404     39.99864883     -0.09917968
  O     31.70862131     20.37060443     16.61993003
  H     31.32105113     19.60491150     17.05016681
  H     31.76608625     20.21224645     15.67482657
  O     30.69481165      8.46801008     49.17030769
  H     31.09041115      7.79752078     48.60857365
  H     30.31052495      9.15767068     48.62414656
  O      9.90128893      1.54263244      7.77625755
  H      9.93046975      1.00472075      8.57086405
  H      9.58732434      2.42272240      7.99641184
  O     47.87181274     47.02524558      4.89922744
  H     47.21953629     47.39138654      4.29749973
  H     48.43104716     46.40443748      4.42651806
  O     34.08876679      9.33668252     39.73242944
  H     33.13162102      9.35449591     39.80422541
  H     34.47760078      9.64043450     40.55592374
  O      7.57183442     11.31355984     21.68483242
  H      7.08741382     10.98704603     22.44662335
  H      8.03791140     10.58643104     21.26571913
  O     16.03843928     13.03123904     20.88087052
  H     15.45816733     12.38419903     21.28857591
  H     16.46962373     13.55027082     21.56372189
  O     23.44204571     49.36015486     48.95686009
  H     23.90920127     49.94845799     48.35914351
  H     23.59533521     48.44938879     48.69492976
  O     10.75060002     36.24138573     11.72523710
  H     11.04956848     35.92367483     10.87008936
  H     11.19826981     35.75576221     12.42191605
  O     44.00050501     12.57893637     27.33730960
  H     44.18179910     13.38176477     27.83147457
  H     43.96542570     11.83261936     27.94011999
  O     44.91180946      8.22267194      4.53535343
  H     45.76625819      7.91037115      4.84192414
  H     44.44430122      8.64162106      5.26165756
  O     19.32840710     26.57608458      8.11147396