3055
Energy =      0.00000000 au
 Au     17.49633866     18.93989361     20.48580966
 Au     19.26790501     19.77261777     18.50662987
 Au     19.02941063     16.95790438     19.27319327
 Au     20.20271787     18.88745233     21.13526404
 Au     16.83234016     18.28204875     17.86371591
 Au     18.73078868     21.40412552     20.87660858
 Au     16.64778078     21.02996437     18.85468022
 Au     18.34489915     16.84982096     22.11693533
 Au     16.26189117     16.47566097     20.09500740
 Au     18.16034034     19.59774091     23.10790199
 Au     14.78996055     18.99233390     19.83635056
 Au     15.96326668     20.92188543     21.69842184
 Au     15.72477231     18.10716944     22.46498945
 Au     21.06395464     20.61685030     16.50009756
 Au     20.58366985     14.94852379     18.04381835
 Au     22.94649960     18.83428630     21.79369395
 Au     16.15916512     17.61511237     15.20538448
 Au     19.98229895     23.90241343     21.27280838
 Au     15.78749571     23.14892018     17.20100836
 Au     19.20518685     14.73086324     23.77060337
 Au     18.83351863     20.26467975     25.76623198
 Au     12.04617996     19.04549893     19.17791585
 Au     14.40900745     22.93126863     22.92779246
 Au     13.92872268     17.26293692     24.47152177
 Au     20.94741274     17.73970012     17.15257986
 Au     22.17271175     19.75475266     19.09716391
 Au     18.65298259     19.12252184     15.68064376
 Au     20.63555804     22.38294534     18.82704684
 Au     18.46024578     21.99220520     16.71552126
 Au     21.92364801     16.81531219     19.89769119
 Au     18.40392580     16.18308262     16.48117780
 Au     19.98350765     14.68739153     20.92286124
 Au     17.80819969     14.29665216     18.81133984
 Au     21.61179469     21.45855586     21.57216124
 Au     21.20880355     16.70244393     22.86745216
 Au     21.01606673     19.57212602     23.90232751
 Au     15.91675609     20.43558542     16.04411825
 Au     15.51376285     15.67947311     17.33940712
 Au     13.97661149     18.30766494     17.06929020
 Au     17.89933010     23.69600703     19.19051792
 Au     19.47891738     22.20031657     23.63220782
 Au     17.18448475     23.58313722     22.16027480
 Au     13.78387758     21.17734591     18.10416367
 Au     15.00917379     23.19239732     20.04875048
 Au     17.09335015     14.18377953     21.78109989
 Au     19.07592743     17.44420485     24.92749990
 Au     16.53243048     15.88758407     24.25609946
 Au     13.38088315     16.42123338     19.39945139
 Au     14.35711754     15.49684381     22.14457322
 Au     16.58875542     21.69670809     24.49044001
 Au     16.33969532     18.75726966     25.29097587
 Au     13.06903011     21.06447797     21.07392360
 Au     12.81996448     18.12503853     21.87445409
 Au     14.04526485     20.14009042     23.81903856
 Au     15.01038346     13.97737231     19.69880419
  O     26.33189607     23.66034951     36.72164086
  H     26.57530669     24.48139514     36.28777988
  H     25.37875508     23.55070486     36.68847006
  O      3.87879845     16.83320253     33.39833135
  H      4.06464225     17.77450886     33.36663764
  H      2.96145460     16.69582685     33.64573424
  O      0.29417942     34.32398119     22.14394074
  H      0.03434188     33.65283438     21.50860900
  H      0.32794630     35.17978991     21.71029199
  O      3.06376337     28.14281194     38.05068620
  H      3.41710330     28.42226013     37.20294827
  H      2.14658357     28.41727279     38.12176682
  O     10.71306056     33.25389469      4.95424984
  H     10.80327889     32.81219238      4.10668879
  H     11.58382159     33.44945474      5.30798916
  O     34.27157277     16.48161054     33.42846791
  H     33.75167572     16.30489768     34.21591925
  H     34.81715988     17.25829965     33.57230371
  O     11.15567598     14.41333459     29.14249889
  H     10.22691044     14.61662915     29.27541202
  H     11.29364611     13.46809367     29.23780816
  O     18.20330230     38.70352134      0.71395869
  H     18.67260037     38.34687731      1.47169503
  H     18.75984787     38.64173183     -0.06580992
  O     24.76430846     18.71650574     38.72892138
  H     23.82872194     18.88739433     38.85959256
  H     25.11493145     19.33162130     38.08061869
  O      8.83423025     22.75293048      6.98306642
  H      8.44061434     23.26382183      7.69416173
  H      8.51290240     23.07814940      6.13892124
  O      4.53262677     24.48603647     24.10375328
  H      4.83334531     24.19854841     24.96892319
  H      3.58272345     24.62341893     24.12399550
  O      5.10054851     23.36512502     21.38766037
  H      5.49801635     22.88007485     22.11453425
  H      5.17597447     22.85126699     20.58028137
  O     20.19150510     28.68803608     26.62455981
  H     19.35351387     29.01993071     26.29408037
  H     20.90811165     29.03894755     26.09076567
  O      7.51036880     39.20153222     23.46220933
  H      6.88259950     38.54268631     23.15654977
  H      8.40346093     38.90707728     23.26912199
  O     38.91564115      4.13838912     16.78232514
  H     38.13208078      4.22656457     17.32991827
  H     39.68910947      4.04225741     17.34277626
  O     34.47956753      8.87007234      0.48539371
  H     34.10156277      7.98966560      0.54536358
  H     35.42933018      8.82062358      0.61618260
  O     14.61103840     36.75615994     10.52043993
  H     14.42552074     37.60274732     10.93332371
  H     14.75183584     36.09241500     11.19957079
  O     31.67762652     35.18416363     23.18424356
  H     31.22727835     35.85666991     22.66798604
  H     32.12939705     34.57634923     22.59427317
  O     12.21527601     34.77513406      9.78589178
  H     11.69120133     34.24313420     10.38915116
  H     12.75843418     35.38733284     10.28768044
  O     30.77871056     29.19266135     12.82024743
  H     29.92319777     29.55376066     12.57672093
  H     31.04976782     29.55414282     13.66727701
  O     18.69551476     26.04625922     14.92113266
  H     18.59784477     25.48691944     14.14705283
  H     19.19021277     26.83477544     14.68636457
  O     33.43908803     31.58110478      8.69457976
  H     32.85704840     31.42616078      7.94703563
  H     34.30713068     31.21721447      8.50567290
  O      7.13346130     26.89967190     16.54864647
  H      7.51983608     27.30571536     15.76926002
  H      6.63204762     27.55665788     17.03706612
  O     35.08337457     16.22599275     25.44804898
  H     34.46664685     16.65638070     26.04471733
  H     35.21946700     15.31790473     25.72814717
  O      3.60418705     19.02834515     18.53559999
  H      2.99775281     18.72227167     17.85725161
  H      4.22406181     19.65353701     18.15285929
  O     11.24229886     30.18746259     27.32812073
  H     10.81297826     29.57561158     26.72569052
  H     11.63804181     30.90500119     26.82799486
  O     20.14139087     21.97771017      2.52228934
  H     19.45311813     22.45291923      2.99351857
  H     20.61859659     21.41366831      3.13525874
  O     26.86855982     29.72734204      9.31282807
  H     26.76016680     29.06526892      9.99949403
  H     27.42274302     30.43996704      9.63939597
  O     24.90518501     25.89074964     36.02580883
  H     24.93704338     25.50032643     36.90225322
  H     24.16929261     25.51738774     35.53523440
  O     18.47650663     29.83839455     16.41219934
  H     17.76810990     29.74231351     15.77146342
  H     19.32158822     29.84634368     15.95681608
  O     28.75489633      2.66206679     20.73547387
  H     29.22138990      3.12468339     21.43545217
  H     28.10599135      3.24903058     20.34051079
  O     32.71666915      8.57834271     14.29176459
  H     33.23478595      8.07693742     13.65792887
  H     31.78835476      8.35304297     14.19651528
  O     40.06582162      7.80904217     23.70310115
  H     40.49569655      8.15765470     22.91870530
  H     39.25555831      7.35980420     23.45158850
  O     35.37963824     16.36355752     14.72337520
  H     35.86125045     16.86190829     15.38767648
  H     34.69129236     15.84602493     15.14756851
  O     25.09093493      4.31608916     37.44972939
  H     25.89131018      3.92741780     37.81019304
  H     24.37057520      3.68490278     37.51519408
  O     37.35017758     23.68797414     24.59716954
  H     37.97281819     23.80147237     23.87534073
  H     36.46901687     23.55082743     24.24171688
  O     27.42583027      7.12634843     31.85085440
  H     27.11502964      6.83343827     30.99108314
  H     27.60616203      8.06882932     31.82238978
  O      2.32683585      1.86764578     22.71432417
  H      1.68155387      2.35130348     23.23517579
  H      3.20622600      2.20508781     22.89981229
  O     28.03449237     39.21621013     22.55800378
  H     28.19574670     38.27666887     22.44460507
  H     28.28159636     39.68282198     21.75624758
  O     39.93653241     31.08351692     33.48908701
  H     40.32794168     31.95533056     33.39776465
  H     39.86255039     30.86138588     34.42009961
  O     34.15047704     25.99974852     40.12953114
  H     34.10069485     26.27831947     41.04687511
  H     35.01463970     26.22006587     39.77416772
  O      9.67925675      7.93253291     29.58776912
  H      9.51229029      8.87097424     29.70200608
  H      8.86154754      7.48782807     29.35284518
  O     37.01376740      9.63609467     15.89570799
  H     36.68277200     10.27676154     16.52941772
  H     37.38925816     10.09606143     15.14136240
  O      7.75297149     15.10615201     25.28852934
  H      8.45524546     15.46630944     25.83506195
  H      7.02077927     14.83333704     25.84626273
  O     10.63351213     39.34779640     30.87476764
  H     10.86869093     39.34430234     31.80550860
  H      9.69295165     39.17985613     30.78126869
  O     31.56169942     24.95461350     38.03072499
  H     31.53264277     24.11665392     38.49824980
  H     31.42820260     25.67346687     38.65284109
  O      9.06993067     11.82553432     14.14069008
  H      8.67591090     12.46341712     13.54114529
  H      9.74562569     12.25698828     14.66878449
  O     37.77999537     35.00966812     31.69644948
  H     38.20086492     34.49867466     31.00121247
  H     36.85732786     35.15417461     31.47418263
  O     17.04321239     18.41165835     36.78380288
  H     16.79035703     18.60868646     37.68870293
  H     17.95454252     18.11051467     36.76405715
  O      9.56321476     31.45602240     38.97153949
  H      8.88980346     30.96748971     38.49252693
  H      9.79399708     32.24841829     38.48118423
  O     15.04647661      9.94370717      3.37463182
  H     14.61911607     10.14856080      2.53976778
  H     15.98919013     10.10955553      3.30124558
  O     18.82101813     28.51059287     13.16551719
  H     19.25206111     29.00280327     13.86803472
  H     19.30944837     28.62589608     12.34714010
  O     29.34939126     39.37422758     14.26606479
  H     29.36908593     39.12137268     15.19195707
  H     28.66133136     40.02914468     14.12729457
  O     34.96012233     20.55284554      4.85756293
  H     34.78647716     21.49424311      4.92979849
  H     35.00502845     20.16697932      5.73545285
  O     14.88580584     12.38395643      5.79244790
  H     15.51646447     12.29962913      5.07358867
  H     14.37223319     11.57609737      5.86460659
  O     23.08573505     15.11210895     29.31542009
  H     23.71245872     14.62976875     28.77120931
  H     23.12249015     16.04584585     29.09545539
  O      3.69171305      0.88034869     25.36566791
  H      3.18294734      0.46083939     24.66797929
  H      4.59846827      0.99945949     25.07376452
  O      6.62609942      4.61994987     17.27038648
  H      6.43668678      5.19970671     18.01173988
  H      7.56103461      4.66690877     17.05756950
  O     36.91665367     34.57880870     15.23369916
  H     37.84594376     34.39366690     15.38778502
  H     36.68498386     34.33033531     14.33581828
  O      1.06765997     12.27541805     14.76406770
  H      1.35719003     12.08018594     13.86983240
  H      1.54928051     11.72345303     15.38453226
  O     21.70817225     18.46068914     14.34179525
  H     21.27558093     18.57984887     15.19047994
  H     21.05985104     18.19265551     13.68648037
  O     14.02096243     16.67550090      0.43557957
  H     13.64025155     16.32922486      1.24598202
  H     14.19417754     17.61412901      0.53840862
  O     30.79073868     11.69807912     37.17686224
  H     31.59321410     12.21510010     37.07526246
  H     30.96389920     10.94666879     37.74869958
  O     32.25392514     10.45262422     13.25944497
  H     32.74087655     10.23354301     12.46164690
  H     32.86765861     10.56303804     13.98933539
  O     36.58245756     22.39236364     31.27406515
  H     37.46060117     22.01488572     31.18476663
  H     36.39429739     22.94918129     30.51501979
  O     39.35039487     37.93746918     12.74955973
  H     39.67086632     37.50125207     13.54241071
  H     40.09281088     38.30117753     12.26156926
  O      1.17108537     11.37018192      6.11437541
  H      1.81618947     11.09343986      6.76924527
  H      0.37507722     11.67362108      6.55697649
  O     35.54953856     12.11830782      2.00369799
  H     35.45636585     11.73479353      1.12857764
  H     34.68347051     12.35437946      2.34398656
  O     24.71086227     21.11837995     13.23347261
  H     24.97112946     20.66600211     12.42773364
  H     25.46814999     21.58029418     13.60055647
  O      2.46465015     24.97252746      7.02031050
  H      3.19770368     24.79518977      6.42635439
  H      2.02344560     25.78184507      6.75208752
  O      8.28992833     24.53135267     37.15567861
  H      9.19960646     24.83580807     37.19299638
  H      7.72523717     25.15077105     37.62370079
  O      8.90818160      9.79337789     25.62736965
  H      9.00561651     10.49986106     24.98472824
  H      8.57004875      9.00784709     25.19124176
  O      5.75884230     20.14993400     19.39712143
  H      5.77857883     19.37633121     19.96523163
  H      6.30209250     19.99190694     18.62155282
  O     26.11183654      8.29765677     33.34174538
  H     25.72462981      7.84764744     34.09617400
  H     25.91030344      9.23503990     33.38967543
  O      1.48345846     12.82715283     24.61886503
  H      0.74485986     13.17559573     25.12350317
  H      1.75158848     11.98146045     24.98562204
  O      6.22887973     38.34624531      1.80975869
  H      6.41086930     38.96487846      1.09858163
  H      6.88331588     38.45426503      2.50376522
  O     21.89863770     39.37173753     32.27945103
  H     21.20485699     38.75576205     32.03278827
  H     21.93147778     39.45130252     33.23558437
  O     10.54438463     18.98622601      9.28547062
  H      9.60109935     19.14405172      9.36856051
  H     10.76315156     18.13788568      9.67797502
  O     10.01598380     35.27073392     33.51688965
  H     10.62318433     34.75489844     34.05244662
  H      9.16371893     35.31981914     33.95601974
  O      6.03120091     11.78217411     28.89823583
  H      6.62357099     12.06709280     28.19857947
  H      6.54537913     11.45672651     29.64073473
  O     35.62738240     29.80491480      0.32734414
  H     35.11758240     30.16433885      1.05708267
  H     36.33023441     29.24849435      0.67084862
  O     29.07825802     13.41126647     26.64027709
  H     29.88457567     13.08430572     26.23463128
  H     28.62197501     12.68725525     27.07526395
  O     27.82960233      4.39419476     36.33458276
  H     28.42983487      4.24911115     35.59955102
  H     26.92977817      4.45680856     36.00595532
  O     33.99488386     17.11885849     21.55582992
  H     33.61629721     16.30344844     21.21911253
  H     34.37073569     17.62157957     20.82946436
  O     21.54774748      9.16877298     38.22286958
  H     22.10709796      9.11682871     37.44439104
  H     22.03741821      8.86384457     38.99022950
  O     18.17471099     19.92553671     29.02575096
  H     17.64122597     20.11097354     28.24947334
  H     19.06860717     19.70389095     28.75478460
  O     40.00679591     32.56107334      1.24519769
  H     39.25836952     32.14348703      1.67772471
  H     39.93170239     33.51481546      1.32480265
  O     15.64723788     34.16239122     11.47474106
  H     15.71562988     33.20547760     11.43954369
  H     15.52159988     34.44143105     12.38465967
  O      6.83300830      0.76685670      5.46320462
  H      6.95118290     -0.12392149      5.80106403
  H      7.55606588      1.32217899      5.76387867
  O      9.52952289      4.52881871     21.89963321
  H      8.70097087      4.94335907     21.64812209
  H      9.62133641      3.69117370     21.43971896
  O     32.89240850     27.12258038      9.52183803
  H     32.11251689     26.96853773      8.98365595
  H     33.67602451     26.86124864      9.03270443
  O     39.08669219      8.11704324     20.47626321
  H     38.70382075      7.31416356     20.83736385
  H     39.72699725      8.47371324     21.09625995
  O      1.16141751     27.48198205     32.70410721
  H      1.05496369     27.53826045     33.65652536
  H      0.39126021     27.85929655     32.27272396
  O     38.07022357      5.46878053     20.30270844
  H     37.24013926      5.59568917     20.76795487
  H     38.71976446      5.09459553     20.90244356
  O     34.01715707     33.86749014     23.19334787
  H     33.72967475     33.11206784     23.71131607
  H     33.96655791     34.66191045     23.72994466
  O     37.04917485     17.92765665      5.17932954
  H     36.80057623     18.35712358      4.35752854
  H     37.16670137     16.98719191      5.02664168
  O      2.91332856     24.06802237     35.17749522
  H      2.99751178     23.33712196     35.79417811
  H      2.72099122     24.87474383     35.66103098
  O      2.14588705     37.34856506      9.10110812
  H      1.76045124     37.97898387      9.71397952
  H      1.48457710     36.69901679      8.85139590
  O     13.24265345      0.87091849     36.99532789
  H     13.65669692      0.59274442     36.17509183
  H     12.91861247      1.76974284     36.90198854
  O     22.46950285     15.26313520     31.32372247
  H     21.67399057     14.79097418     31.58028472
  H     23.20216463     14.64601864     31.26068386
  O      4.47528487     25.54151881      2.74798543
  H      4.97842008     26.27744791      2.39180665
  H      4.91495202     24.71677317      2.52869697
  O     24.76441765     30.19040337     35.81728043
  H     25.08550046     30.00243423     34.93230957
  H     24.10027726     30.88242323     35.77695587
  O     12.62020488      4.13472217     17.02165786
  H     12.00057588      4.36579187     17.71755060
  H     13.46850901      3.90854938     17.41002106
  O     15.38440641     19.43439051     28.12650749
  H     15.62407281     19.65991189     29.02833903
  H     15.66660324     20.13585448     27.53497283
  O     31.89144863      4.65807158     39.52293880
  H     32.47135749      4.94502369     40.23213848
  H     30.98118719      4.67261573     39.82759040
  O     20.79344526     39.08788496     15.57773026
  H     21.39879658     39.71000510     15.98775015
  H     20.16722750     38.77102393     16.23274967
  O      2.82029599     35.42733090      0.20383338
  H      3.09621780     34.88494921      0.94632194
  H      2.31067445     36.17484485      0.52493893
  O     39.00506741      4.75865779     30.21010178
  H     39.34352815      3.99936961     29.72997078
  H     39.10460275      5.54795541     29.67279183
  O      6.51523346     16.26635119     36.42460283
  H      7.21123389     16.01575575     37.03647318
  H      5.66678504     16.23072039     36.87233682
  O     24.07232612     38.98850751     38.82332489
  H     24.55740321     38.20386693     38.55754421
  H     23.13715617     38.86217729     38.64697907
  O     23.39105718      6.60194882     37.12334385
  H     24.34958212      6.65483787     37.11762485
  H     23.04105968      7.20024696     37.78752838
  O      0.15600951     23.44579568     20.38265812
  H     -0.11163825     23.56949096     21.29625768
  H      0.59781286     22.59854281     20.29007102
  O     36.13008933      5.87337457     30.33840222
  H     35.24320637      6.22621246     30.23571800
  H     36.68578349      6.18989387     29.62242769
  O      8.11646339      6.45782433     31.84719303
  H      7.75557547      7.32150573     32.06029946
  H      8.83673317      6.25426806     32.44833884
  O      6.73476035     38.42071838     18.67886737
  H      5.85237711     38.13002986     18.43699961
  H      7.31180694     38.36401490     17.91375173
  O      5.80213948     21.59919058      2.23850814
  H      5.81613731     20.91347605      2.91022210
  H      5.89616736     22.45858907      2.65587249
  O     22.50684248      9.22343804     35.46654954
  H     21.85604736      8.97402648     34.80635291
  H     23.04747035      8.46151357     35.68744006
  O      3.19953215     15.26090886     23.77294247
  H      4.05804649     15.23172081     24.20154623
  H      2.51612326     15.39671360     24.43332825
  O     16.70634270     27.87203433      1.55819440
  H     17.27393003     28.08179749      2.30347559
  H     16.55610984     26.92439062      1.52654811
  O     12.47559028     20.67203279     32.64225739
  H     13.35384782     20.35614345     32.86692960
  H     12.10303924     20.11894745     31.95167623
  O     34.61507957     26.47232885     30.92772953
  H     34.08329882     27.21263139     31.22899582
  H     35.42795839     26.80007957     30.53605684
  O     -0.83207576     25.32198245     30.62454698
  H     -0.66639183     25.64305151     31.51396449
  H     -0.18070762     25.69153146     30.02391974
  O      0.96717037     37.94640847     14.01948561
  H      1.16265497     38.32807306     14.87839067
  H      1.20375615     37.01601866     14.02089622
  O     27.39121192     28.37269392     31.47942482
  H     27.24813338     28.14464607     32.40090336
  H     27.24240823     27.59895602     30.93098419
  O     23.10730766     35.24304801     39.35918638
  H     23.83498429     35.34044621     38.74063945
  H     22.41314606     34.71588173     38.95689866
  O     24.39357761     37.30571784     11.09864788
  H     24.77187654     37.44662484     11.96964452
  H     23.43805686     37.38426049     11.14775126
  O      5.99043636      3.24722790      7.69786326
  H      6.19697788      2.78734148      6.88089014
  H      5.93571105      4.19075581      7.52945829
  O     13.40231404     24.58815746     36.88564930
  H     13.53060845     25.42494720     36.43296456
  H     13.04710161     23.94226677     36.27062950
  O     25.14416045     11.02899324     39.62317736
  H     24.71398225     11.66830851     39.05061932
  H     24.97712355     10.14215459     39.29573898
  O      4.06544423      3.46899888     17.82303977
  H      3.69671384      3.65016148     18.69069063
  H      3.40394002      3.64636916     17.15031993
  O      9.01009151      2.93292732     25.56207003
  H      8.32193996      3.56321625     25.78742156
  H      9.86966580      3.35029983     25.65444005
  O     39.78747169     34.02865362      6.14986657
  H     39.45757349     34.14350302      5.25567598
  H     40.74424871     34.10724380      6.15101108
  O      3.60710648     11.17739415     38.49315667
  H      4.12788144     10.64177144     37.89024560
  H      3.21444615     11.91023230     38.01319196
  O     23.73828667     24.93679349     15.55290134
  H     23.79535225     25.65477341     16.18760471
  H     23.48673334     24.12833538     16.00535732
  O     14.70820433      2.96926279     19.47996584
  H     14.54480078      2.44165493     18.69477209
  H     14.51157802      3.89028507     19.29380444
  O     35.23500145      0.54040692     13.63885186
  H     35.31928432      0.22667773     12.73548571
  H     34.31926382      0.76867875     13.81468295
  O     21.30002118     39.25678615      5.75579575
  H     21.52720875     40.01178460      6.30348466
  H     21.19819816     38.47874976      6.30887030
  O     25.15412589     21.31400924     36.99533429
  H     24.53548828     21.75448161     36.40807660
  H     26.03571693     21.66734412     36.85550687
  O      5.29136111     36.39818801     19.83970624
  H      5.15625247     35.57349311     20.31217209
  H      5.99150132     36.89958123     20.26398037
  O     16.94041602     32.54785218     38.74029710
  H     17.53678143     33.27070178     38.53188223
  H     16.65589124     32.62052555     39.65427972
  O      2.03408108     10.66074582      9.44964557
  H      1.77620530     10.10898044     10.19170692
  H      1.74094104     10.25416536      8.63088965
  O      6.07149592     18.61516421     13.61108427
  H      5.48889236     19.30190192     13.27857201
  H      6.13527356     17.90830396     12.96464710
  O     22.36843339     21.36501841      9.80560374
  H     22.37043679     20.46618991     10.14280298
  H     21.57115481     21.81429696     10.09559626
  O     22.39124585     18.54891111     32.71821223
  H     23.32933758     18.58105136     32.51683964
  H     22.06974747     17.65146131     32.60497515
  O     26.49593236      3.10987045     10.14143226
  H     27.25891683      3.11943244     10.72398120
  H     25.79102208      3.63454489     10.52797880
  O     37.47721743     29.52129027     29.57657885
  H     37.40427260     29.24307553     28.66067732
  H     37.37598703     28.75949843     30.15192710
  O     25.07129282     28.23519420     22.07868700
  H     25.96180498     27.99760740     21.81009699
  H     24.44353339     27.62850337     21.67938219
  O     20.76396122     35.74232548      1.83908906
  H     21.09201244     36.39663860      1.21791539
  H     21.28236431     35.77855018      2.64627306
  O      4.89169792     19.00142827     35.79323224
  H      4.45068943     18.44234699     36.43707977
  H      5.68355073     19.37760592     36.18446043
  O      4.54918025     27.57811350     29.48952687
  H      4.03613839     28.14557795     28.90955089
  H      5.40090735     27.39422558     29.08660480
  O     26.76187883     19.54258422     21.99486358
  H     27.04671172     19.50791371     21.07874777
  H     25.82620378     19.33443119     22.04763216
  O     38.61756526     28.56268655     35.38561136
  H     39.56172621     28.67762424     35.51580138
  H     38.22929017     29.39435407     35.10423687
  O     31.18404811     10.45225740     32.27604868
  H     30.68951752      9.89440598     32.88089684
  H     31.70107204     11.08784737     32.77636024
  O     21.56015532     33.15690819     22.79571184
  H     21.08503101     33.81680170     22.28542031
  H     22.09403513     32.61925831     22.20621633
  O      3.96773393     17.47029571     11.56189133
  H      4.21967683     18.21950126     12.10669940
  H      3.60736029     16.77610190     12.11851129
  O      4.51584408     13.09001465     29.99434727
  H      4.21277053     12.28164512     29.57448403
  H      3.99677582     13.83143997     29.67425877
  O     26.93563406     12.10290797     21.90515467
  H     26.85512389     11.29693286     22.42044316
  H     27.52249218     12.71430970     22.35613744
  O     13.29960444     20.80613666      7.67034238
  H     13.46137524     21.49716942      7.02388748
  H     12.62076861     21.09466798      8.28477838
  O      6.06573505     20.16533507     34.16136711
  H      5.20172585     20.51897181     33.93769510
  H      6.03839520     19.20636928     34.12619392
  O     15.22056358      3.45128721      5.42636085
  H     14.57752774      4.16302097      5.46560314
  H     16.10567883      3.81433446      5.50615869
  O     29.64881286     14.86389928      7.99545719
  H     29.16207624     15.68065605      7.86280784
  H     30.27865404     14.97876728      8.71079308
  O      3.28311607     32.91344218     19.01819981
  H      2.50248920     33.33379468     19.38633765
  H      4.04184787     33.49034680     19.13268609
  O     18.81588709     29.93769013      3.83429093
  H     18.34335696     29.29718913      4.37101595
  H     19.30045492     29.48100697      3.14274591
  O      7.59128705      1.38516619      0.97036518
  H      6.76720994      1.87000781      1.05653672
  H      7.69774905      0.79796061      1.72233290
  O      5.88671302     29.13821289     15.82898932
  H      5.58085817     28.38859377     15.31311726
  H      6.38363050     29.73456251     15.26415293
  O      7.40968152      1.39887931     36.81318765
  H      8.14623120      1.81898763     37.26330272
  H      7.26332316      0.52566128     37.18422606
  O      4.89551159      4.25958551      2.09757197
  H      4.16114846      4.13821788      1.49128764
  H      5.61877380      4.69609066      1.64155110
  O     20.17936051     22.07912294     30.09479431
  H     20.17601393     22.86341408     29.54119137
  H     20.70641138     21.39415132     29.67690526
  O      3.85904672      4.75908138     21.52550023
  H      4.28488396      4.99797194     20.69894476
  H      4.49089162      4.83270658     22.24449352
  O     18.63848366      2.48463728     14.80026475
  H     17.86715019      2.82529707     15.25917169
  H     19.37673399      2.42978042     15.41147434