3055
Energy =      0.00000000 au
 Au     22.40785027     21.12570670     19.05992867
 Au     22.22977270     19.72842694     16.65890240
 Au     23.57599522     22.32151705     16.83405704
 Au     20.67026808     22.15711619     17.14524015
 Au     24.75732806     19.96978320     18.11503479
 Au     20.05576318     19.70377378     18.61854150
 Au     22.58170608     18.35192833     19.21790708
 Au     22.23399660     23.89948497     18.90194580
 Au     24.75993859     22.54763883     19.50131184
 Au     20.05837026     22.28162820     20.00481952
 Au     24.14543540     20.09429550     20.97461360
 Au     21.23970637     19.92989189     21.28579845
 Au     22.58592784     22.52298646     21.46095494
 Au     22.04923407     18.31183659     14.22469363
 Au     24.76028409     23.53385364     14.57742357
 Au     18.90867229     23.20277990     15.20409038
 Au     27.13927595     18.79788469     17.15708234
 Au     17.67116995     18.26218956     18.17105429
 Au     22.75796460     15.53981597     19.37806877
 Au     22.05774026     26.71159720     18.74177957
 Au     17.67642013     23.45352468     20.96276887
 Au     25.90703418     19.04863005     22.91575972
 Au     20.05541857     18.71755075     23.54243004
 Au     22.76646647     23.93957682     23.89516371
 Au     23.44178974     20.91531236     14.22800348
 Au     20.40730171     20.74362538     14.55297660
 Au     24.67547147     18.45936516     15.56574572
 Au     19.76556671     18.18156981     16.09156327
 Au     22.40344069     16.76981935     16.71748901
 Au     21.81318207     23.45161904     14.73589130
 Au     26.08134338     21.16736333     15.74865842
 Au     23.44620081     25.27119375     16.57043817
 Au     26.08406958     23.85944608     17.19636268
 Au     18.13695737     20.71787979     16.59945133
 Au     20.41171020     25.09951016     16.89541752
 Au     18.13968152     23.40996409     18.04715948
 Au     25.04299769     17.02187094     18.23814538
 Au     27.31775308     21.40349995     18.53411217
 Au     26.67601730     18.84144565     20.07269683
 Au     20.13309689     16.74407476     18.76396203
 Au     17.49794721     20.84790966     19.58574079
 Au     18.73162894     18.39196453     20.92348657
 Au     24.40398898     17.15190004     21.22443518
 Au     21.36950135     16.98021491     21.54941194
 Au     24.68260349     25.50733895     19.35589197
 Au     19.77269859     25.22954080     19.88170664
 Au     22.41225828     25.48159302     21.40237027
 Au     26.67874581     21.53352827     21.52040232
 Au     25.05013309     24.06984212     22.02829620
 Au     18.73435400     21.08404735     22.37119540
 Au     20.14022600     23.79204521     22.55411195
 Au     23.00251909     18.79978963     23.38396341
 Au     24.40839779     21.50778390     23.56688155
 Au     21.37390921     21.33609799     23.89185366
 Au     27.14453307     23.98922224     19.94879499
  O     21.10236994     23.07862255     34.83128371
  H     21.86215238     22.49332596     34.87321897
  H     21.03550740     23.45432051     33.95038618
  O     36.62822550     25.24925220     30.01659768
  H     36.78187571     24.38182334     30.39811936
  H     36.05382525     25.75649186     30.59484700
  O     12.20490826      7.61694821     29.02978738
  H     11.51211905      7.20153179     28.51106557
  H     12.88242916      7.96052225     28.44282714
  O     32.38341355     23.48134591      3.41251630
  H     31.43928555     23.32214198      3.48234774
  H     32.72024322     23.06639126      2.61504629
  O      6.47437545     11.26159220      3.66011616
  H      5.62440735     11.37977795      3.22978331
  H      7.13923159     11.04504067      3.00233828
  O     35.40710519     18.26170034      4.64222272
  H     35.96348022     18.12613838      5.41272242
  H     35.90698840     18.71973897      3.96257767
  O      9.80722639      6.64507561     10.15120897
  H      9.59953229      7.37394090      9.56195643
  H     10.68936891      6.31885392      9.95884481
  O     37.43996136     25.12333496     12.98287708
  H     38.39222254     25.05347643     13.08246835
  H     37.06945403     25.56823171     13.74863893
  O      5.69487434      3.99464283     36.20244323
  H      4.76905640      3.80808468     36.37465592
  H      6.21062819      3.81241448     36.99136071
  O     26.13418816     34.03139155     28.13288834
  H     26.17595559     34.98962226     28.17350107
  H     25.32641293     33.76440523     27.68812155
  O     11.93488900     -1.01173054     19.54620239
  H     12.88184950     -1.08439936     19.40625574
  H     11.62529376     -0.16711915     19.21096757
  O      0.26612123     21.88088661      7.89889034
  H      0.97634508     22.06570572      7.28000102
  H      0.08756164     20.93769724      7.90939251
  O      4.06576004     13.51703119     24.37069298
  H      3.78331572     12.92531337     23.66948314
  H      4.41312398     14.32563394     23.98715694
  O     29.03927754     19.80718540      2.16729796
  H     28.38084422     20.26072708      2.69867872
  H     29.53450466     19.19910470      2.72100183
  O     33.91315297     24.58776713     29.05670338
  H     34.51748153     24.51026544     28.31482705
  H     33.03075291     24.78199560     28.73228784
  O     19.83360030     16.46387009     32.87921677
  H     19.86704753     15.51022579     32.98430637
  H     19.47290111     16.86151061     33.67506733
  O      5.02793975     30.37804377     39.64991447
  H      4.50221890     30.15403012     38.87852904
  H      5.95265451     30.19042558     39.47299071
  O     20.65121481     23.40173165     24.94151497
  H     19.91164866     22.88037709     24.62084171
  H     21.19202469     22.86528110     25.52576276
  O     16.75736766     20.12586771     22.74308662
  H     16.65022549     19.94346546     21.80668394
  H     16.53375620     19.34183136     23.24992477
  O     36.33869637     18.45559073      1.24487760
  H     35.78601344     17.73875821      0.92504526
  H     35.81645190     19.04011288      1.79912896
  O      1.39928985     17.64483660     14.78920807
  H      1.54648787     18.56614916     15.01529634
  H      2.02348983     17.09390581     15.26717216
  O     23.21795778     37.76777862     17.15078305
  H     23.38357128     37.14505982     17.86239634
  H     22.80832151     37.30989492     16.41312415
  O     23.25991701      1.95812409      6.77227945
  H     23.80738834      2.05289220      5.98940388
  H     22.48767020      1.42838241      6.56107192
  O     32.39994071     34.63876207      6.30212431
  H     32.30524821     35.11061988      5.47147183
  H     31.84712530     35.05127339      6.96982899
  O      3.63849147     19.22804361     10.68358054
  H      3.60283055     18.28728595     10.87147234
  H      3.12742830     19.41654477      9.89308592
  O     18.12723715     14.96754485     10.74520773
  H     18.55406848     15.33867878      9.96953085
  H     17.50254236     14.29082384     10.47427398
  O     30.81183684     31.93312141     33.44733379
  H     30.23744938     31.86788443     32.68089841
  H     30.74581861     32.81400350     33.82321720
  O     38.05936213     13.00557669     13.38848415
  H     37.64353575     13.10752850     12.52924365
  H     38.94250197     12.64624258     13.27648848
  O     34.76594948     20.37909048      4.73960637
  H     34.27268884     21.18465641      4.91094661
  H     35.09506042     20.02253652      5.56795126
  O     -0.07562409     27.97929650     37.16034685
  H      0.09643236     28.00789508     36.21632423
  H      0.16070299     28.82199169     37.55482667
  O      3.15209163     32.30918395     14.56283101
  H      2.70205381     31.46597868     14.65266886
  H      3.08682262     32.79669767     15.38725222
  O     19.63464689      1.00038171     26.74341524
  H     18.82982924      0.55008000     26.47677518
  H     20.34733449      0.36223696     26.82371261
  O      1.85377231      9.80638897     12.00989208
  H      1.83769237      9.19987026     12.75385209
  H      2.28098617      9.38389191     11.26117013
  O     18.26921664     38.90222212     26.59549009
  H     17.62802766     39.28417987     27.19929881
  H     17.82924377     38.27830998     26.01346130
  O     16.30369206     33.66316332      4.19428334
  H     15.58461211     33.07783596      4.44311245
  H     17.03644897     33.54758699      4.80363499
  O      6.56819681     29.62157758     18.97419047
  H      6.73511199     30.21101361     19.71331461
  H      7.28427023     29.69356961     18.33885118
  O      8.44075387     30.66631647     39.30691336
  H      8.06684746     29.85062815     39.64815605
  H      7.92712902     30.96315038     38.55214244
  O     13.91990582     35.86356699     23.48308427
  H     13.21471097     36.51141463     23.41530768
  H     13.80095346     35.18887171     22.81059887
  O      2.15580526      6.06886754     31.89263367
  H      2.64063434      5.86874280     32.69668022
  H      2.58173716      5.64043750     31.14655745
  O      2.85664673     34.02709665     33.23629145
  H      3.20898012     33.23786354     33.65410993
  H      2.82299126     34.74111203     33.87711074
  O     18.29661668     34.89248626     32.80751177
  H     18.50496378     34.15219615     33.38210906
  H     18.22336265     35.69380859     33.33107302
  O     23.66998849      3.55633520      4.00705184
  H     24.25742987      2.81181053      4.15603385
  H     23.74413414      4.17429339      4.73796230
  O     36.90560552     32.61978257     34.89549665
  H     36.51158320     33.28587696     35.46353246
  H     37.67866377     32.24781511     35.32633439
  O     26.43404464      3.99242334     32.83206403
  H     26.39935326      3.31927104     32.14849803
  H     27.20847770      3.85148390     33.38159977
  O     13.12605476      6.75042316     16.13021528
  H     12.84687173      7.53980210     16.59982973
  H     13.11567264      6.91921981     15.18522856
  O     33.16360828      1.67365813     19.27088262
  H     32.99674234      2.61877808     19.29333357
  H     32.64787421      1.24084698     19.95520189
  O     29.13925425     27.44836475     12.67356629
  H     28.98260564     26.66587671     13.20720820
  H     29.34862284     28.19001473     13.24603473
  O      2.72327540      2.43855581     26.23112273
  H      2.15658689      1.66367506     26.23601800
  H      3.56577898      2.21687661     25.82782872
  O     22.49548609     30.87314657     13.13534061
  H     21.68239083     31.18534902     12.73160093
  H     22.40739314     30.89427444     14.09105671
  O     17.38039932     12.70347897      3.12091207
  H     18.09907501     12.06888278      3.07199460
  H     17.72739582     13.56159906      3.37551636
  O     17.19272275     32.25907984     32.33930281
  H     16.44669649     31.65568011     32.30842249
  H     17.64000456     32.17266563     33.18433037
  O     26.67568929     18.31065716      2.94881071
  H     26.83456460     17.45284781      2.54815904
  H     26.44330379     18.94486948      2.26662912
  O     23.51765279     29.55493172     26.86047646
  H     23.17053277     28.70265007     27.13383280
  H     24.39068546     29.43788401     26.47875169
  O     33.67983137     25.36884313     35.19132396
  H     33.94543457     24.61059566     34.66585682
  H     33.44366721     26.09502461     34.60952765
  O     15.54336613      8.94933395     18.23659141
  H     15.00668804      8.16486065     18.37141824
  H     15.07207631      9.56699524     17.67269387
  O      7.53446717      1.43413631     13.63428030
  H      8.17145967      2.11151731     13.39554291
  H      7.86233414      0.93705154     14.38728095
  O     15.64209880     25.66212526     13.48778981
  H     16.33961209     26.06966968     14.00642529
  H     15.21700583     26.32836840     12.94279803
  O     20.79105735      7.75940516     33.04615999
  H     20.41565938      8.00403728     33.89517794
  H     21.56898264      7.21424932     33.18485884
  O      1.19075774      1.20439509     23.07496358
  H      1.76951485      1.03061862     22.32901321
  H      1.28584805      0.50379495     23.72436121
  O     35.30539581      3.04829584     19.17698912
  H     35.11563147      2.11219302     19.08054740
  H     35.90723219      3.17906039     19.91339499
  O     31.00973389     13.84536924     29.77778275
  H     31.29408101     14.56578417     30.34501203
  H     30.42379461     13.26382163     30.26775984
  O     27.80803975     16.12906390      5.22204254
  H     27.04239675     16.23615801      4.65290139
  H     27.52766227     15.79320630      6.07655301
  O     11.91161316      2.38702071     20.59977450
  H     11.59567737      1.75932191     21.25382250
  H     12.46915133      3.04150816     21.02685457
  O      0.08440934     15.04900991      6.88399571
  H      0.23884738     14.17806754      7.25710198
  H      0.27711306     15.03357019      5.94366232
  O     32.08061866     37.20862313      7.38737735
  H     31.92597054     37.04089148      6.45488068
  H     31.70165771     38.05735486      7.62746702
  O     32.91522113      1.12837502      3.37596240
  H     32.18135725      1.32603024      2.78946754
  H     33.66798317      0.83247150      2.85886432
  O     39.39190407     11.17028599     27.22324414
  H     38.78343075     10.44622971     27.05861508
  H     39.84240629     11.40198748     26.40779201
  O      8.60308266     30.35026534      7.70370236
  H      9.18952602     30.38545333      6.94446195
  H      8.07534527     29.54931076      7.66414219
  O     32.15808775      7.14981285      9.29557804
  H     31.71613269      7.94651573      8.99302184
  H     31.63954263      6.74055574      9.99215508
  O      8.57028846     16.04316818     26.67947908
  H      9.18475596     15.81856157     25.97692548
  H      8.07019837     16.82385000     26.43038915
  O     16.24555237     35.98948752     30.17423288
  H     17.04470945     36.11381492     30.69142789
  H     16.03257897     36.80389062     29.71272456
  O      2.53854985     12.38142857      4.81098877
  H      2.17076710     12.15883172      3.95262608
  H      2.61807020     13.33502297      4.88802272
  O     31.74987469     20.91118486     15.87416445
  H     31.21083034     20.26664862     16.33849647
  H     32.22587240     21.44918815     16.51101500
  O     19.09786256     35.67265023     11.04973839
  H     19.74149521     35.34057014     11.67986522
  H     18.21733627     35.39856558     11.31647997
  O     19.71607676     11.33382043     34.83533628
  H     19.00204969     11.06633681     34.25205431
  H     20.49244328     11.54948067     34.31346878
  O      2.20047048     25.70473876      7.52482024
  H      2.64517167     25.69062876      6.67414888
  H      2.71191162     25.20095200      8.16217953
  O     29.86359320     22.55324432     26.09835958
  H     29.50584898     22.01135105     26.80544568
  H     30.76718773     22.79953992     26.30920413
  O     19.69436901     35.70053684     23.32690444
  H     19.07461609     36.22496794     23.83923084
  H     19.95399735     34.92684787     23.83247196
  O     21.35865829     22.35090486     38.02918557
  H     21.51158916     23.14155009     37.50660326
  H     21.27998305     21.59195971     37.44659440
  O      9.24108536     25.78509546     30.37624387
  H      8.57088760     25.74968187     29.68981773
  H      8.87030034     25.46746546     31.20282094
  O     17.86043248      0.54192098      9.47402026
  H     18.45287434      1.03638362      8.90295165
  H     18.07134505      0.72729409     10.39203589
  O     13.95354646     37.87734113     28.90679582
  H     14.24785542     37.13338335     28.37622154
  H     13.81577733     38.64020357     28.34052684
  O      0.86119046     30.62034994      7.36095450
  H      1.69388560     30.27171863      7.03434309
  H      0.78915132     31.54888171      7.12806155
  O      3.80633496      2.17047941     15.59061332
  H      4.10688318      3.07610233     15.69605476
  H      4.25670150      1.76821127     14.84432227
  O      4.66118487     34.59781237      0.60203837
  H      4.28737049     33.71410262      0.63236812
  H      4.39951437     35.08358208      1.38763135
  O     10.75477160     28.70222669     16.80108753
  H     10.52808052     28.29412447     17.63993421
  H      9.96559324     29.07753756     16.40367178
  O     30.07856120     19.21723217     27.16012382
  H     29.44749860     18.76449244     27.72438151
  H     30.22079547     20.10797055     27.48868821
  O     20.65699274     37.56942149     24.24738253
  H     21.19604075     37.08392631     23.61863641
  H     20.00428609     38.09086163     23.77444044
  O      9.63252662     13.80817425     17.38381319
  H     10.27412015     14.50229676     17.55159781
  H      9.93496167     13.26163838     16.65481964
  O     25.15952807     24.69206225      8.68748237
  H     25.07193936     23.75349195      8.50578476
  H     25.58106131     24.81523530      9.54114397
  O     29.05513731     18.15360862      0.62947312
  H     28.36610089     18.07570830      1.29337097
  H     28.92025578     18.95618378      0.12027760
  O     14.95286114     12.16588762      8.37151256
  H     15.22180649     13.08311990      8.28233104
  H     15.31469166     11.65372292      7.64462468
  O      5.59369328     18.16677335      2.31610923
  H      6.45518761     18.28027297      2.72420891
  H      4.98262152     18.81623612      2.67162211
  O      1.92783195      3.25274203     19.06710854
  H      2.79632651      3.26745707     19.47588804
  H      1.28096301      2.93316723     19.70037983
  O     35.05169479      6.74710602     29.49933946
  H     34.72106991      7.52622008     29.04627381
  H     35.58586672      6.22716625     28.89442377
  O     37.27448807     28.16350582      5.57680509
  H     36.74764573     28.73901555      6.13611332
  H     37.78480483     27.56315204      6.12521383
  O     21.25053292     23.87201927     11.26109617
  H     20.81460730     24.48851377     11.85397339
  H     21.63719170     23.15625744     11.77078233
  O     33.45928879     38.65052017      6.72825339
  H     33.93204770     37.83076506      6.88981009
  H     33.83577383     39.34932936      7.26818370
  O     18.80951343     14.26163875     24.92747545
  H     17.94132443     14.11575179     24.54463753
  H     18.76556788     14.13673227     25.87829992
  O     31.81303099     11.74346079      7.29601940
  H     31.20038185     11.94378090      8.00744957
  H     32.41404686     12.48190824      7.17323798
  O     39.09204689     34.31253376     36.80127558
  H     39.61615428     33.75928528     36.21747119
  H     39.54620255     35.14578645     36.94630180
  O     21.43197418      4.85882814      4.98512714
  H     20.61511017      4.79392241      4.48500673
  H     21.23723304      5.14159012      5.88163233
  O      1.72944908     15.94896479      8.25513553
  H      1.61183532     16.55061723      7.51636537
  H      1.94750986     15.07443152      7.92461915
  O     27.26157143     15.03619996      9.58921432
  H     28.10772193     15.36814709      9.89814866
  H     27.14172237     14.13312480      9.89202029
  O     29.93472214     -0.34427587     31.83306927
  H     30.30539846     -1.06945073     32.34132165
  H     29.60777381      0.33188888     32.43098735
  O     23.26334163     -0.23759605     13.53784661
  H     23.14980960     -1.16613558     13.32215047
  H     22.97190116      0.30107593     12.79859365
  O     39.88480408      0.62437509     29.56034309
  H     39.29523051      0.95237602     28.87739477
  H     39.36765137      0.29446080     30.29879393
  O     17.69432542      6.56104581     37.77066444
  H     17.53648734      6.37377606     36.84243107
  H     17.90267908      5.74495644     38.23130193
  O     26.52560067     39.39523938     34.88941923
  H     25.72684004     39.59598881     34.39618385
  H     26.43812243     38.53391610     35.30423216
  O      2.93446261     21.29536398     32.79472727
  H      3.79461951     21.44301051     32.39481401
  H      2.39394069     20.76428650     32.20532692
  O     36.62052078     19.71207694     27.61335972
  H     37.03735373     20.37657344     27.05992076
  H     35.95463463     20.12734869     28.16630187
  O     22.41557211     18.90274919      7.89108163
  H     23.11684917     18.25087697      7.96088920
  H     21.56801223     18.47950880      8.04635502
  O     23.87280557     32.94308607     15.12492552
  H     23.95227430     32.13058083     14.61983151
  H     23.02704506     33.35625393     14.93629494
  O     20.79174447      0.52192519      7.34898885
  H     20.93458863      1.29118688      7.90525497
  H     20.43563921     -0.19502507      7.87886750
  O      7.12849999     26.78100056     24.48923739
  H      6.60992682     27.44562312     24.02993497
  H      7.25048623     26.01883565     23.91842743
  O     28.58937726      5.14130514     21.78968462
  H     28.53776509      4.19301904     21.93000452
  H     28.60303137      5.59050179     22.63799821
  O     35.82343204      0.03761652     15.02390311
  H     36.74232528     -0.23333899     15.08569582
  H     35.63237709      0.32043774     14.12662380
  O     12.50795521     17.37635970      4.49597984
  H     13.19021867     17.42852623      3.82263355
  H     12.66844668     16.61360566      5.05638038
  O     34.28745606     14.03555770     32.55118647
  H     34.36461669     14.53291138     31.73369913
  H     34.22839248     14.64350509     33.29180207
  O     30.57699515     20.85313637     21.34556896
  H     31.31323510     20.32537561     21.66340433
  H     29.85346991     20.80561520     21.97473743
  O     11.50586135     16.79830064     38.81985965
  H     10.79267527     16.20830807     39.07456418
  H     12.15921870     16.31098324     38.31266547
  O     36.45240823     30.04947687     20.84445283
  H     37.14623952     30.55999773     20.42069984
  H     35.91111589     29.62611756     20.17410255
  O     37.48590062     17.96623243     26.25451498
  H     36.76630167     18.54075053     25.98302591
  H     38.08045075     18.44898616     26.83335778
  O     24.54160691     28.51064164     36.12982065
  H     25.30534077     28.74353624     35.59683782
  H     23.76820832     28.43572385     35.56604592
  O      7.97850647     17.06761556     15.13374599
  H      7.72988461     16.16635952     15.35174765
  H      7.34895103     17.67738009     15.52546932
  O     31.00311493     30.73654536     38.60399734
  H     30.54564565     31.31874930     37.99296507
  H     30.41467220     30.50325250     39.32573801
  O      8.31947704      1.05059778     29.76545394
  H      7.65568651      1.65932952     29.43314715
  H      9.13885030      1.17408682     29.28070872
  O     24.84637184     36.36325888     13.47278373
  H     25.48902773     35.65028835     13.45646074
  H     24.42846106     36.43776183     12.61173791
  O     22.36093049     15.49485031      1.26925685
  H     21.95433237     14.68671914      1.59050752
  H     21.67710104     16.11318657      1.00160494
  O     39.17445122      7.85081548     13.87377740
  H     39.65113480      8.66541512     13.69827759
  H     39.43835684      7.18174308     13.23793468
  O     26.99114101      7.48205840     28.90312121
  H     26.62956897      7.07237523     28.11380165
  H     27.79963214      7.03080987     29.15672892
  O     18.62639724     38.53307919      2.51731714
  H     17.81805054     38.11204728      2.81882626
  H     19.31356516     38.41729868      3.17761641
  O     24.73450148     12.69321376     10.51559765
  H     25.60595536     12.48325088     10.17196452
  H     24.08347088     12.60109210      9.81611730
  O     38.29545855     15.23399699     24.49614140
  H     38.09705186     14.46360328     23.95880693
  H     38.47502335     15.98495580     23.92568776
  O     33.88643137     12.78730956     20.54247399
  H     34.05694814     11.88818266     20.83246513
  H     32.99256894     13.03859194     20.78633282
  O     30.19585999      2.98098671     28.50493910
  H     31.13180617      2.84929805     28.67305468
  H     29.68389086      2.39165857     29.06366978
  O     23.43539519      4.17221992      6.79280087
  H     23.20405119      5.10144715      6.72485448
  H     23.23338276      3.85545700      7.67623294
  O     10.72921329      3.62357169      9.02080144
  H     11.48853125      4.16796670      9.24141494
  H     10.45943758      3.12166305      9.79340016
  O     32.43883220     35.66485022     15.38274708
  H     32.18481041     36.14429522     16.17471010
  H     32.95190219     36.24016171     14.81057939
  O     36.80140815     29.80644965     30.19954604
  H     36.35439156     28.97188477     30.04055661
  H     37.70224529     29.63808655     30.48545917
  O      4.86096498     32.34616692     10.33991462
  H      5.34711392     32.62710749     11.11858760
  H      4.29982033     31.60026426     10.56429355
  O     27.82052618     20.93770060     24.46477651
  H     27.31321756     20.16893628     24.73540424
  H     28.59475380     20.65391158     23.97321227
  O     12.70051005     38.29867877     -0.44021769
  H     13.48542597     37.80019866     -0.20141951
  H     12.82338114     39.22151800     -0.20597327
  O     19.64961512     19.42791782     29.27008596
  H     20.26493136     19.19948159     29.97065916
  H     18.77718340     19.57150581     29.64404504
  O     35.47516369     22.56771629     28.41916636
  H     34.75624104     22.32008140     29.00519297
  H     36.17951427     22.97359700     28.92980431
  O      2.76216612     31.13976236      9.15656098
  H      1.97222057     30.60246646      9.25089629
  H      2.72917631     31.61443811      8.32277766
  O     28.73287223     24.36396092     16.91239302
  H     28.03938306     23.86429337     16.47535170
  H     28.59366133     24.34226849     17.86199808
  O     24.24848566     29.39263678     33.09332679
  H     24.32953261     30.03407925     32.38369101
  H     24.83241829     29.63752785     33.81488833
  O     38.95546944     24.10343855     10.30216021
  H     38.52363282     24.80825185     10.79037671
  H     39.27363127     23.43700889     10.91554798
  O     36.98637843      2.61052549      2.23788678
  H     37.21414194      3.32684196      2.83505887
  H     37.77009414      2.33105455      1.75904894
  O     14.70692300      6.16767688     12.58322718
  H     14.71998329      5.34602460     12.08692389
  H     13.90046929      6.64916671     12.38473294
  O     19.81013814     32.89948782      9.40084502
  H     20.68309746     33.29529457      9.34718830
  H     19.73115371     32.40770395     10.22152162
  O     29.54447380     40.51484363     37.37129272
  H     29.03292319     39.97828838     37.98123078
  H     30.11259591     41.10949000     37.86650275
  O     27.42260548     27.36448487      8.69117494
  H     26.55088526     26.96696684      8.75186512
  H     27.80157440     27.44148241      9.56984094
  O      2.00954292     12.17519232     22.33219715
  H      1.73611760     12.59698934     23.15007603
  H      2.01143822     11.22222345     22.44815718
  O     15.42199644     30.21320683     28.63867144
  H     14.56692345     30.55889528     28.37230762
  H     16.11852648     30.71572388     28.20980955
  O     11.82303980     21.21619275     35.08954912
  H     12.72659031     20.93700152     35.25462100
  H     11.33823405     20.50135389     34.67053983
  O     14.06215248     20.88684978     23.01687359
  H     14.29097537     21.80841296     23.15815841
  H     14.63528883     20.32927492     23.54812211
  O     39.50946785     22.32855319     38.88312625
  H     39.93375468     21.64991952     39.41325551
  H     39.20184255     23.03594604     39.45458232
  O      4.49234977     37.95698578     13.80615508
  H      5.21509339     38.37198249     14.28262061
  H      3.80505651     37.70131784     14.42572096
  O     15.84778220     12.45422158     28.41114950
  H     16.80729863     12.46489999     28.43968360
  H     15.54443452     12.94788100     27.64572114
  O     14.68896971      9.28227887     12.98089723
  H     15.44240216      9.80674811     12.70005641
  H     14.33361020      8.80336636     12.22859248
  O      8.13164652     37.32809298     17.63343726
  H      7.52421816     37.21724931     18.36851852
  H      7.72869610     36.98893663     16.83081411
  O     34.89084395     10.92174424      3.22655917
  H     34.36564330     11.50442000      2.67315765
  H     34.39688376     10.70196578      4.01984397
  O      7.47452524      9.84569348     39.23862345
  H      7.60529303      9.29357465     38.46424333
  H      6.53444257      9.94926199     39.40329933
  O      0.03799973     25.99225725     14.53610012
  H     -0.41010985     25.96242718     13.68762621
  H      0.73820871     26.64829814     14.50580607
  O     12.47359727     32.40706704     33.25018978
  H     11.96692927     32.93535077     32.62905869
  H     12.43238307     32.80906003     34.12099575
  O      9.11771938     10.16399477     31.00211079
  H      8.16079808     10.17156315     30.92566242
  H      9.38697055     10.74922227     31.71387802
  O     10.53544916      4.03801769      3.81113827
  H     10.72877833      3.16373277      4.15733146
  H     10.80999207      4.70249854      4.44729186
  O     18.02053615     24.59138462     11.16827171
  H     18.10682023     24.57243327     10.21234498
  H     18.69226900     25.16820491     11.53928834