6100
Energy = 37253203065.88919830 au
 C1     62.13000000     50.44000000     54.69000000
 C2     60.59000000     48.70000000     55.51000000
 C3     61.81000000     48.52000000     53.41000000
 N4     61.85000000     49.00000000     54.80000000
 C5     62.93000000     48.38000000     55.59000000
 C6     64.37000000     48.76000000     55.25000000
OS7     65.01000000     49.79000000     56.01000000
 P8     66.56000000     49.96000000     55.64000000
OM9     66.77000000     49.37000000     54.30000000
OM10     67.28000000     51.14000000     56.18000000
OS11     66.97000000     48.72000000     56.59000000
C12     67.23000000     49.21000000     57.90000000
C13     67.25000000     48.42000000     58.54000000
OS14     67.14000000     48.65000000     60.28000000
C15     65.90000000     48.60000000     60.85000000
O16     64.96000000     48.04000000     60.28000000
C17     65.88000000     49.15000000     62.26000000
C18     64.51000000     49.81000000     62.46000000
C19     64.28000000     50.33000000     63.88000000
C20     64.47000000     49.25000000     64.95000000
C21     64.60000000     49.81000000     66.38000000
C22     64.83000000     48.80000000     67.50000000
C23     65.11000000     49.63000000     68.76000000
C24     65.56000000     48.74000000     69.87000000
C25     65.86000000     49.08000000     71.13000000
C26     66.31000000     48.14000000     72.21000000
C27     66.74000000     48.78000000     73.53000000
C28     68.20000000     49.21000000     73.55000000
C29     68.77000000     49.01000000     74.95000000
C30     68.77000000     47.52000000     75.30000000
C31     69.22000000     47.50000000     76.76000000
C32     69.61000000     46.17000000     77.42000000
C33     70.85000000     45.51000000     76.80000000
C34     68.54000000     47.23000000     58.66000000
OS35     68.68000000     45.98000000     59.35000000
C36     69.60000000     45.08000000     58.91000000
O37     70.35000000     45.24000000     57.95000000
C38     69.25000000     43.76000000     59.60000000
C39     70.39000000     43.25000000     60.48000000
C40     70.19000000     43.68000000     61.93000000
C41     71.42000000     43.38000000     62.80000000
C42     71.08000000     43.51000000     64.29000000
C43     72.22000000     43.12000000     65.22000000
C44     73.05000000     44.41000000     65.38000000
C45     74.20000000     44.18000000     66.36000000
C46     74.86000000     45.42000000     66.95000000
C47     75.89000000     45.28000000     68.08000000
C48     76.98000000     44.43000000     67.41000000
C49     78.18000000     44.00000000     68.26000000
C50     78.36000000     42.50000000     68.51000000
C51     79.08000000     42.15000000     69.82000000
C52     80.56000000     41.84000000     69.60000000
 C1     39.62000000     46.07000000     53.69000000
 C2     41.72000000     44.80000000     53.87000000
 C3     41.35000000     46.91000000     55.00000000
 N4     40.74000000     45.65000000     54.55000000
 C5     40.20000000     44.85000000     55.66000000
 C6     38.95000000     45.38000000     56.38000000
OS7     37.67000000     44.90000000     55.99000000
 P8     36.49000000     45.43000000     56.94000000
OM9     36.98000000     46.64000000     57.63000000
OM10     35.09000000     45.19000000     56.50000000
OS11     36.81000000     44.29000000     58.03000000
C12     36.04000000     43.13000000     57.73000000
C13     36.46000000     41.88000000     58.50000000
OS14     36.01000000     40.68000000     57.87000000
C15     36.84000000     40.01000000     57.02000000
O16     38.00000000     40.38000000     56.85000000
C17     36.22000000     38.74000000     56.48000000
C18     36.77000000     38.56000000     55.06000000
C19     36.32000000     37.25000000     54.39000000
C20     36.67000000     36.01000000     55.21000000
C21     35.94000000     34.74000000     54.77000000
C22     36.20000000     33.46000000     55.56000000
C23     35.21000000     32.43000000     55.03000000
C24     35.24000000     31.20000000     55.89000000
C25     34.56000000     30.06000000     55.72000000
C26     34.63000000     28.86000000     56.62000000
C27     33.63000000     27.74000000     56.32000000
C28     32.27000000     27.93000000     56.98000000
C29     31.71000000     26.57000000     57.39000000
C30     32.61000000     25.93000000     58.45000000
C31     32.01000000     24.54000000     58.64000000
C32     32.46000000     23.67000000     59.82000000
C33     32.09000000     24.25000000     61.19000000
C34     36.22000000     42.09000000     60.01000000
OS35     36.79000000     41.20000000     60.95000000
C36     36.78000000     41.53000000     62.27000000
O37     36.30000000     42.56000000     62.74000000
C38     37.75000000     40.57000000     62.94000000
C39     37.08000000     39.71000000     64.01000000
C40     36.66000000     38.35000000     63.43000000
C41     35.78000000     37.56000000     64.40000000
C42     35.65000000     36.10000000     63.94000000
C43     34.88000000     35.21000000     64.91000000
C44     33.42000000     35.37000000     64.50000000
C45     32.52000000     34.47000000     65.36000000
C46     31.12000000     34.19000000     64.83000000
C47     30.23000000     33.15000000     65.53000000
C48     30.11000000     33.73000000     66.95000000
C49     29.34000000     32.91000000     67.99000000
C50     30.13000000     32.39000000     69.19000000
C51     29.57000000     31.11000000     69.81000000
C52     28.73000000     31.38000000     71.05000000
 C1     52.31000000     43.39000000     45.51000000
 C2     52.48000000     43.04000000     47.54000000
 C3     49.62000000     44.31000000     46.11000000
 N4     51.53000000     42.89000000     46.42000000
 C5     51.45000000     41.46000000     46.12000000
 C6     50.76000000     41.03000000     44.82000000
OS7     51.57000000     40.76000000     43.67000000
 P8     50.71000000     40.18000000     42.44000000
OM9     49.04000000     40.55000000     42.71000000
OM10     51.37000000     40.09000000     41.12000000
OS11     50.76000000     38.70000000     43.06000000
C12     51.92000000     38.03000000     42.57000000
C13     52.25000000     36.73000000     43.31000000
OS14     53.61000000     36.34000000     43.12000000
C15     54.55000000     36.69000000     44.04000000
O16     54.23000000     37.28000000     45.08000000
C17     55.92000000     36.16000000     43.71000000
C18     56.93000000     37.21000000     44.22000000
C19     58.39000000     36.77000000     44.06000000
C20     58.70000000     35.42000000     44.72000000
C21     60.03000000     34.80000000     44.28000000
C22     60.38000000     33.44000000     44.88000000
C23     61.73000000     32.94000000     44.10000000
C24     61.96000000     31.55000000     44.48000000
C25     63.00000000     30.81000000     44.07000000
C26     63.26000000     29.39000000     44.46000000
C27     64.42000000     28.70000000     43.74000000
C28     64.03000000     28.08000000     42.40000000
C29     64.83000000     26.79000000     42.19000000
C30     64.46000000     25.76000000     43.26000000
C31     65.43000000     24.61000000     43.01000000
C32     65.21000000     23.26000000     43.69000000
C33     63.92000000     22.56000000     43.27000000
C34     51.11000000     35.72000000     43.09000000
OS35     51.06000000     34.54000000     43.90000000
C36     49.94000000     33.77000000     43.87000000
O37     48.93000000     34.01000000     43.19000000
C38     50.10000000     32.77000000     45.09000000
C39     50.05000000     31.36000000     44.66000000
C40     51.49000000     30.85000000     44.55000000
C41     51.55000000     29.45000000     43.92000000
C42     52.94000000     28.82000000     44.11000000
C43     53.05000000     27.38000000     43.61000000
C44     53.41000000     27.51000000     42.13000000
C45     53.62000000     26.13000000     41.51000000
C46     54.25000000     26.16000000     40.13000000
C47     54.79000000     24.72000000     39.60000000
C48     53.44000000     24.02000000     39.41000000
C49     53.44000000     22.58000000     38.90000000
C50     52.90000000     21.50000000     39.84000000
C51     53.50000000     20.11000000     39.62000000
C52     52.59000000     19.21000000     38.80000000
 C1     50.75000000     56.71000000     45.56000000
 C2     48.45000000     55.85000000     45.32000000
 C3     49.30000000     56.80000000     47.39000000
 N4     49.33000000     56.87000000     45.92000000
 C5     48.87000000     58.17000000     45.40000000
 C6     49.78000000     59.39000000     45.62000000
OS7     50.67000000     59.79000000     44.58000000
 P8     51.43000000     61.17000000     44.92000000
OM9     51.37000000     61.37000000     46.38000000
OM10     52.55000000     61.56000000     44.04000000
OS11     50.16000000     62.02000000     44.43000000
C12     50.29000000     62.29000000     43.03000000
C13     49.02000000     62.83000000     42.38000000
OS14     49.03000000     62.65000000     40.96000000
C15     48.43000000     61.57000000     40.41000000
O16     47.80000000     60.76000000     41.11000000
C17     48.49000000     61.55000000     38.90000000
C18     48.59000000     60.09000000     38.47000000
C19     48.56000000     59.89000000     36.95000000
C20     47.33000000     60.52000000     36.28000000
C21     47.44000000     60.65000000     34.77000000
C22     46.27000000     61.29000000     34.03000000
C23     46.73000000     61.47000000     32.58000000
C24     45.73000000     62.30000000     31.83000000
C25     45.75000000     62.63000000     30.53000000
C26     44.72000000     63.46000000     29.83000000
C27     45.04000000     63.85000000     28.38000000
C28     45.88000000     65.11000000     28.25000000
C29     45.46000000     65.88000000     27.00000000
C30     44.00000000     66.35000000     27.15000000
C31     43.69000000     66.96000000     25.79000000
C32     42.42000000     67.80000000     25.61000000
C33     42.40000000     69.09000000     26.44000000
C34     48.68000000     64.21000000     42.99000000
OS35     47.39000000     64.78000000     42.74000000
C36     47.01000000     65.87000000     43.47000000
O37     47.68000000     66.42000000     44.34000000
C38     45.51000000     66.00000000     43.23000000
C39     45.14000000     67.34000000     42.60000000
C40     45.02000000     67.20000000     41.08000000
C41     44.88000000     68.56000000     40.38000000
C42     44.45000000     68.38000000     38.92000000
C43     44.18000000     69.69000000     38.19000000
C44     45.54000000     70.12000000     37.64000000
C45     45.40000000     71.40000000     36.81000000
C46     46.55000000     71.73000000     35.86000000
C47     46.41000000     72.89000000     34.87000000
C48     46.19000000     74.09000000     35.79000000
C49     45.92000000     75.45000000     35.15000000
C50     44.56000000     76.09000000     35.41000000
C51     44.08000000     77.04000000     34.30000000
C52     44.33000000     78.50000000     34.64000000
 C1     66.38000000     47.79000000     51.62000000
 C2     64.07000000     48.13000000     52.40000000
 C3     65.26000000     49.75000000     51.05000000
 N4     65.04000000     48.33000000     51.32000000
 C5     64.51000000     47.60000000     50.15000000
 C6     65.45000000     47.39000000     48.95000000
OS7     66.16000000     46.15000000     48.84000000
 P8     66.97000000     46.03000000     47.46000000
OM9     67.16000000     47.40000000     46.93000000
OM10     67.93000000     44.91000000     47.33000000
OS11     65.64000000     45.57000000     46.68000000
C12     65.53000000     44.15000000     46.74000000
C13     64.18000000     43.61000000     46.30000000
OS14     63.94000000     42.28000000     46.80000000
C15     63.27000000     42.01000000     47.90000000
O16     62.74000000     43.07000000     48.56000000
C17     63.06000000     40.65000000     48.31000000
C18     61.94000000     40.10000000     50.89000000
C19     63.05000000     39.67000000     50.56000000
C20     61.47000000     38.57000000     49.86000000
C21     61.32000000     37.06000000     50.08000000
C22     60.04000000     36.40000000     49.56000000
C23     60.25000000     34.90000000     49.73000000
C24     59.15000000     34.14000000     49.06000000
C25     58.95000000     32.82000000     49.03000000
C26     57.82000000     32.12000000     48.33000000
C27     57.89000000     30.59000000     48.30000000
C28     58.71000000     30.04000000     47.14000000
C29     58.09000000     28.73000000     46.65000000
C30     56.69000000     29.00000000     46.09000000
C31     56.14000000     27.61000000     45.79000000
C32     54.87000000     27.45000000     44.96000000
C33     55.01000000     27.95000000     43.52000000
C34     63.96000000     43.93000000     44.81000000
OS35     62.65000000     43.77000000     44.25000000
C36     62.40000000     44.28000000     43.01000000
O37     63.21000000     44.88000000     42.31000000
C38     60.88000000     44.29000000     42.84000000
C39     60.38000000     43.50000000     41.62000000
C40     59.82000000     42.67000000     41.41000000
C41     59.80000000     41.04000000     40.99000000
C42     58.89000000     39.86000000     41.53000000
C43     58.74000000     38.79000000     40.36000000
C44     60.00000000     37.94000000     40.13000000
C45     59.73000000     36.88000000     39.06000000
C46     60.71000000     35.70000000     39.01000000
C47     60.40000000     34.51000000     38.10000000
C48     60.35000000     35.15000000     36.71000000
C49     59.99000000     34.27000000     35.52000000
C50     58.55000000     34.38000000     34.70000000
C51     58.04000000     33.38000000     34.08000000
C52     58.35000000     33.33000000     32.59000000
 C1     62.05000000     47.29000000     54.42000000
 C2     61.53000000     45.74000000     52.58000000
 C3     62.45000000     47.96000000     52.22000000
 N4     62.44000000     46.78000000     53.10000000
 C5     63.76000000     46.15000000     53.22000000
 C6     64.85000000     46.90000000     54.01000000
OS7     65.05000000     46.59000000     55.38000000
 P8     66.32000000     47.36000000     56.01000000
OM9     66.60000000     48.53000000     55.15000000
OM10     66.50000000     47.31000000     57.48000000
OS11     67.33000000     46.27000000     55.40000000
C12     67.50000000     45.21000000     56.35000000
C13     68.20000000     43.98000000     55.78000000
OS14     67.95000000     42.82000000     56.58000000
C15     66.96000000     42.01000000     56.28000000
O16     66.27000000     42.14000000     55.22000000
C17     66.84000000     40.77000000     57.17000000
C18     65.35000000     40.41000000     57.27000000
C19     65.09000000     39.14000000     58.09000000
C20     65.85000000     37.93000000     57.58000000
C21     65.89000000     36.76000000     58.56000000
C22     66.67000000     35.51000000     58.14000000
C23     66.71000000     34.60000000     59.37000000
C24     67.63000000     33.44000000     59.12000000
C25     67.89000000     32.41000000     59.94000000
C26     68.83000000     31.28000000     59.63000000
C27     69.09000000     30.30000000     60.78000000
C28     70.20000000     30.74000000     61.72000000
C29     70.97000000     29.51000000     62.22000000
C30     71.66000000     28.82000000     61.02000000
C31     72.24000000     27.55000000     61.66000000
C32     73.25000000     26.71000000     60.87000000
C33     74.56000000     27.44000000     60.57000000
C34     69.63000000     44.34000000     55.37000000
OS35     70.38000000     43.43000000     54.56000000
C36     71.55000000     43.85000000     53.99000000
O37     72.03000000     44.97000000     54.12000000
C38     71.89000000     42.80000000     52.94000000
C39     73.24000000     42.13000000     53.22000000
C40     73.04000000     40.81000000     53.98000000
C41     74.37000000     40.23000000     54.47000000
C42     74.08000000     37.76000000     53.91000000
C43     75.50000000     36.94000000     54.28000000
C44     75.67000000     38.42000000     56.81000000
C45     76.92000000     37.74000000     57.37000000
C46     77.02000000     37.64000000     58.89000000
C47     78.14000000     36.80000000     59.52000000
C48     79.41000000     37.48000000     58.99000000
C49     80.76000000     36.87000000     59.35000000
C50     81.61000000     36.32000000     58.20000000
C51     82.56000000     35.18000000     58.60000000
C52     83.98000000     35.67000000     58.82000000
 C1     61.71000000     51.29000000     45.62000000
 C2     59.75000000     51.02000000     44.16000000
 C3     60.06000000     52.90000000     45.62000000
 N4     60.72000000     51.95000000     44.75000000
 C5     61.43000000     52.57000000     43.63000000
 C6     62.70000000     53.38000000     43.95000000
OS7     63.98000000     52.74000000     43.83000000
 P8     65.20000000     53.76000000     44.05000000
OM9     64.68000000     54.93000000     44.79000000
OM10     66.55000000     53.18000000     44.18000000
OS11     65.09000000     54.27000000     42.53000000
C12     65.91000000     53.45000000     41.70000000
C13     65.67000000     53.64000000     40.20000000
OS14     66.15000000     52.53000000     39.44000000
C15     65.30000000     51.52000000     39.10000000
O16     64.10000000     51.59000000     39.36000000
C17     65.96000000     50.45000000     38.26000000
C18     65.29000000     49.13000000     38.63000000
C19     65.77000000     47.94000000     37.79000000
C20     65.61000000     48.16000000     36.29000000
C21     66.39000000     47.17000000     35.42000000
C22     66.32000000     47.35000000     33.90000000
C23     67.33000000     46.37000000     33.31000000
C24     67.49000000     46.62000000     31.84000000
C25     68.24000000     45.94000000     30.97000000
C26     68.36000000     46.24000000     29.50000000
C27     69.41000000     45.42000000     28.74000000
C28     70.81000000     46.02000000     28.79000000
C29     71.52000000     45.77000000     27.46000000
C30     70.79000000     46.51000000     26.33000000
C31     71.51000000     46.04000000     25.07000000
C32     71.27000000     46.76000000     23.74000000
C33     71.72000000     48.22000000     23.73000000
C34     66.05000000     55.07000000     39.80000000
OS35     65.65000000     55.57000000     38.51000000
C36     65.77000000     56.91000000     38.26000000
O37     66.21000000     57.74000000     39.04000000
C38     64.95000000     57.15000000     36.99000000
C39     65.81000000     57.70000000     35.85000000
C40     66.26000000     56.57000000     34.93000000
C41     67.30000000     57.05000000     33.90000000
C42     67.50000000     56.00000000     32.80000000
C43     68.44000000     56.45000000     31.68000000
C44     69.84000000     56.07000000     32.17000000
C45     70.88000000     56.40000000     31.11000000
C46     72.25000000     55.72000000     31.24000000
C47     73.28000000     55.86000000     30.12000000
C48     73.50000000     57.38000000     30.05000000
C49     74.43000000     57.92000000     28.97000000
C50     73.82000000     58.82000000     27.90000000
C51     74.54000000     58.80000000     26.55000000
C52     75.48000000     59.99000000     26.38000000
 C1     46.67000000     44.99000000     43.75000000
 C2     44.55000000     45.94000000     44.55000000
 C3     46.26000000     47.26000000     43.45000000
 N4     45.59000000     45.96000000     43.51000000
 C5     44.92000000     45.59000000     42.25000000
 C6     45.80000000     45.25000000     41.04000000
OS7     46.09000000     43.88000000     40.77000000
 P8     46.89000000     43.69000000     39.39000000
OM9     47.53000000     44.99000000     39.05000000
OM10     47.46000000     42.35000000     39.10000000
OS11     45.53000000     43.78000000     38.54000000
C12     44.98000000     42.47000000     38.40000000
C13     43.55000000     42.45000000     37.88000000
OS14     42.89000000     41.21000000     38.19000000
C15     42.12000000     41.11000000     39.30000000
O16     41.90000000     42.09000000     40.02000000
C17     41.46000000     39.76000000     39.45000000
C18     41.37000000     39.47000000     40.95000000
C19     40.62000000     38.17000000     41.28000000
C20     39.22000000     38.11000000     40.69000000
C21     38.60000000     36.71000000     40.69000000
C22     37.21000000     36.56000000     40.08000000
C23     36.93000000     35.06000000     40.03000000
C24     35.67000000     34.79000000     39.26000000
C25     35.07000000     33.61000000     39.04000000
C26     33.82000000     33.41000000     38.25000000
C27     33.41000000     31.95000000     38.01000000
C28     34.07000000     31.32000000     36.79000000
C29     33.10000000     30.36000000     36.12000000
C30     31.92000000     31.20000000     35.74000000
C31     30.95000000     30.04000000     35.14000000
C32     29.73000000     30.39000000     34.24000000
C33     30.09000000     31.00000000     32.88000000
C34     43.51000000     43.01000000     36.45000000
OS35     42.25000000     43.35000000     35.87000000
C36     42.24000000     44.07000000     34.71000000
O37     43.23000000     44.46000000     34.10000000
C38     40.80000000     44.56000000     34.55000000
C39     40.15000000     44.05000000     33.26000000
C40     39.33000000     42.78000000     33.54000000
C41     38.86000000     42.12000000     32.24000000
C42     37.79000000     41.05000000     32.53000000
C43     37.18000000     40.42000000     31.29000000
C44     38.12000000     39.25000000     30.95000000
C45     37.59000000     38.48000000     29.75000000
C46     38.15000000     37.07000000     29.54000000
C47     37.53000000     36.16000000     28.47000000
C48     37.76000000     36.96000000     27.18000000
C49     37.19000000     36.40000000     25.87000000
C50     36.10000000     37.21000000     25.17000000
C51     35.14000000     36.37000000     24.32000000
C52     35.49000000     36.42000000     22.84000000
 C1     39.08000000     52.63000000     44.54000000
 C2     38.25000000     50.61000000     45.69000000
 C3     38.52000000     52.75000000     46.80000000
 N4     38.15000000     52.07000000     45.55000000
 C5     36.78000000     52.36000000     45.12000000
 C6     36.46000000     53.78000000     44.62000000
OS7     36.48000000     54.03000000     43.21000000
 P8     35.72000000     55.68000000     42.92000000
OM9     36.12000000     56.35000000     44.07000000
OM10     36.18000000     55.99000000     41.46000000
OS11     34.45000000     55.06000000     42.95000000
C12     34.01000000     54.60000000     41.67000000
C13     32.67000000     53.87000000     41.69000000
OS14     32.50000000     53.05000000     40.53000000
C15     32.83000000     51.73000000     40.58000000
O16     33.20000000     51.21000000     41.63000000
C17     32.54000000     51.00000000     39.29000000
C18     33.61000000     49.92000000     39.14000000
C19     33.40000000     49.01000000     37.93000000
C20     32.02000000     48.34000000     37.90000000
C21     31.65000000     47.73000000     36.55000000
C22     30.28000000     47.07000000     36.43000000
C23     30.10000000     46.73000000     34.95000000
C24     28.69000000     46.28000000     34.69000000
C25     28.16000000     45.85000000     33.54000000
C26     26.74000000     45.41000000     33.35000000
C27     26.33000000     45.11000000     31.90000000
C28     25.87000000     46.34000000     31.13000000
C29     24.74000000     45.95000000     30.17000000
C30     23.52000000     45.47000000     30.96000000
C31     22.56000000     44.98000000     29.88000000
C32     21.10000000     44.67000000     30.24000000
C33     20.31000000     45.89000000     30.71000000
C34     31.57000000     54.84000000     42.13000000
OS35     30.28000000     54.32000000     42.49000000
C36     29.39000000     55.15000000     43.11000000
O37     29.58000000     56.33000000     43.38000000
C38     28.31000000     54.23000000     43.67000000
C39     26.93000000     54.54000000     43.09000000
C40     26.62000000     53.61000000     41.91000000
C41     25.35000000     54.04000000     41.16000000
C42     24.89000000     52.94000000     40.19000000
C43     23.57000000     53.23000000     39.49000000
C44     23.97000000     54.03000000     38.24000000
C45     22.74000000     54.34000000     37.40000000
C46     22.98000000     54.75000000     35.94000000
C47     21.80000000     54.89000000     34.98000000
C48     20.96000000     55.99000000     35.65000000
C49     19.62000000     56.37000000     35.02000000
C50     18.36000000     56.10000000     35.82000000
C51     17.10000000     55.85000000     34.98000000
C52     16.22000000     57.10000000     34.87000000
 C1     35.42000000     51.03000000     48.92000000
 C2     36.60000000     53.12000000     48.90000000
 C3     36.87000000     51.44000000     47.17000000
 N4     35.94000000     52.06000000     48.12000000
 C5     34.78000000     52.69000000     47.47000000
 C6     33.74000000     51.77000000     46.82000000
OS7     32.57000000     51.42000000     47.56000000
 P8     31.52000000     50.59000000     46.68000000
OM9     32.25000000     49.99000000     45.54000000
OM10     30.38000000     49.96000000     47.39000000
OS11     30.94000000     51.93000000     46.02000000
C12     29.87000000     52.43000000     46.83000000
C13     29.44000000     53.85000000     46.49000000
OS14     28.73000000     54.47000000     47.57000000
C15     29.44000000     55.12000000     48.34000000
O16     30.59000000     55.52000000     48.30000000
C17     28.49000000     55.86000000     49.51000000
C18     29.31000000     55.98000000     50.79000000
C19     28.57000000     56.68000000     51.93000000
C20     28.06000000     58.06000000     51.56000000
C21     27.02000000     58.63000000     52.54000000
C22     26.43000000     60.00000000     52.21000000
C23     25.40000000     60.15000000     53.07000000
C24     24.52000000     61.45000000     52.86000000
C25     23.50000000     62.01000000     53.52000000
C26     22.75000000     63.23000000     53.10000000
C27     21.51000000     63.57000000     53.94000000
C28     20.24000000     62.86000000     53.48000000
C29     19.04000000     63.79000000     53.67000000
C30     19.18000000     65.02000000     52.77000000
C31     17.93000000     65.89000000     53.15000000
C32     17.62000000     67.12000000     52.33000000
C33     17.15000000     66.75000000     50.92000000
C34     28.86000000     53.88000000     45.07000000
OS35     28.65000000     55.14000000     44.42000000
C36     28.37000000     55.16000000     43.09000000
O37     28.28000000     54.17000000     42.37000000
C38     28.55000000     56.61000000     42.66000000
C39     27.27000000     57.21000000     42.08000000
C40     26.51000000     57.98000000     43.16000000
C41     25.11000000     58.40000000     42.69000000
C42     24.50000000     59.44000000     43.64000000
C43     23.16000000     59.99000000     43.19000000
C44     22.12000000     59.01000000     43.74000000
C45     20.70000000     59.48000000     43.41000000
C46     19.57000000     58.87000000     44.22000000
C47     18.15000000     59.43000000     44.08000000
C48     17.85000000     59.20000000     42.59000000
C49     16.52000000     59.72000000     42.04000000
C50     16.57000000     60.83000000     40.99000000
C51     15.34000000     61.74000000     40.96000000
C52     14.37000000     61.35000000     39.85000000
 C1     55.22000000     52.99000000     42.85000000
 C2     57.08000000     51.64000000     44.09000000
 C3     55.11000000     50.67000000     43.10000000
 N4     56.06000000     51.78000000     42.90000000
 C5     56.80000000     51.67000000     41.63000000
 C6     56.02000000     51.91000000     40.33000000
OS7     56.05000000     53.20000000     39.73000000
 P8     55.31000000     53.23000000     38.30000000
OM9     54.40000000     52.07000000     38.23000000
OM10     55.07000000     54.56000000     37.69000000
OS11     56.62000000     52.65000000     37.58000000
C12     57.46000000     53.73000000     37.17000000
C13     58.86000000     53.31000000     36.74000000
OS14     59.79000000     54.41000000     36.79000000
C15     60.56000000     54.59000000     37.90000000
O16     60.54000000     53.79000000     38.83000000
C17     61.51000000     55.77000000     37.77000000
C18     61.66000000     56.37000000     39.17000000
C19     62.68000000     57.51000000     39.23000000
C20     64.06000000     57.12000000     38.72000000
C21     64.98000000     58.31000000     38.44000000
C22     66.38000000     58.00000000     37.89000000
C23     66.99000000     59.35000000     37.52000000
C24     68.27000000     59.14000000     36.77000000
C25     69.13000000     60.07000000     36.32000000
C26     70.40000000     59.80000000     35.58000000
C27     71.13000000     61.03000000     35.03000000
C28     70.63000000     61.48000000     33.66000000
C29     71.80000000     62.02000000     32.84000000
C30     72.81000000     60.90000000     32.58000000
C31     73.97000000     61.62000000     31.90000000
C32     75.08000000     60.80000000     31.21000000
C33     74.59000000     59.98000000     30.02000000
C34     58.77000000     52.44000000     35.48000000
OS35     59.92000000     51.70000000     35.06000000
C36     59.77000000     50.74000000     34.10000000
O37     58.72000000     50.45000000     33.55000000
C38     61.06000000     49.92000000     34.14000000
C39     61.81000000     49.96000000     32.81000000
C40     62.72000000     51.04000000     32.79000000
C41     63.51000000     51.26000000     31.44000000
C42     64.79000000     52.10000000     31.55000000
C43     65.54000000     52.27000000     30.23000000
C44     64.89000000     53.50000000     29.58000000