6100
Energy = -97060.22905696 au
 C1     37.52000000     50.63000000     38.22000000
 C2     36.06000000     49.27000000     39.56000000
 C3     35.31000000     50.15000000     37.50000000
 N4     36.47000000     49.60000000     38.20000000
 C5     36.93000000     48.43000000     37.41000000
 C6     37.84000000     47.34000000     38.02000000
OS7     37.15000000     46.38000000     38.83000000
 P8     37.13000000     44.96000000     38.13000000
OM9     38.55000000     44.67000000     37.93000000
OM10     36.36000000     44.13000000     39.06000000
OS11     36.35000000     45.27000000     36.81000000
C12     34.96000000     44.98000000     36.91000000
C13     34.02000000     46.16000000     36.64000000
OS14     32.81000000     46.08000000     37.44000000
C15     32.63000000     47.02000000     38.40000000
O16     33.53000000     47.77000000     38.80000000
C17     31.24000000     46.95000000     39.00000000
C18     30.23000000     47.62000000     38.07000000
C19     28.93000000     47.94000000     38.81000000
C20     27.90000000     48.57000000     37.88000000
C21     28.34000000     49.91000000     37.31000000
C22     27.28000000     50.41000000     36.33000000
C23     27.64000000     51.76000000     35.72000000
C24     26.57000000     52.21000000     34.77000000
C25     25.94000000     53.39000000     34.76000000
C26     24.87000000     53.78000000     33.79000000
C27     23.96000000     54.88000000     34.32000000
C28     23.20000000     54.43000000     35.58000000
C29     22.28000000     55.55000000     36.08000000
C30     21.19000000     55.83000000     35.05000000
C31     20.26000000     56.95000000     35.54000000
C32     19.18000000     57.25000000     34.50000000
C33     18.23000000     56.07000000     34.34000000
C34     33.73000000     46.21000000     35.13000000
OS35     34.78000000     46.45000000     34.17000000
C36     35.09000000     47.75000000     33.90000000
O37     35.15000000     48.61000000     34.79000000
C38     35.81000000     47.90000000     32.57000000
C39     36.29000000     46.62000000     31.89000000
C40     35.19000000     45.85000000     31.15000000
C41     34.56000000     46.64000000     30.00000000
C42     33.57000000     45.76000000     29.23000000
C43     32.41000000     45.32000000     30.12000000
C44     31.36000000     46.41000000     30.30000000
C45     30.41000000     46.50000000     29.11000000
C46     29.32000000     47.55000000     29.35000000
C47     28.36000000     47.66000000     28.17000000
C48     27.50000000     46.39000000     28.03000000
C49     26.50000000     46.55000000     26.89000000
C50     27.22000000     46.62000000     25.54000000
C51     26.22000000     46.83000000     24.40000000
C52     25.28000000     45.62000000     24.26000000
 C1     72.96000000     45.95000000     51.74000000
 C2     72.57000000     45.32000000     49.46000000
 C3     70.84000000     46.36000000     50.76000000
 N4     72.28000000     46.32000000     50.50000000
 C5     72.70000000     47.67000000     50.06000000
 C6     74.20000000     48.00000000     49.84000000
OS7     74.79000000     47.26000000     48.79000000
 P8     74.90000000     48.10000000     47.47000000
OM9     73.49000000     48.31000000     47.13000000
OM10     75.75000000     49.23000000     47.85000000
OS11     75.64000000     47.05000000     46.57000000
C12     76.93000000     46.75000000     47.08000000
C13     77.57000000     45.48000000     46.50000000
OS14     78.78000000     45.12000000     47.22000000
C15     78.61000000     44.23000000     48.24000000
O16     77.49000000     43.89000000     48.63000000
C17     79.93000000     44.01000000     48.98000000
C18     80.17000000     42.60000000     49.52000000
C19     79.21000000     42.26000000     50.67000000
C20     79.71000000     41.17000000     51.62000000
C21     78.57000000     40.76000000     52.55000000
C22     79.06000000     40.10000000     53.84000000
C23     79.79000000     41.12000000     54.71000000
C24     80.06000000     40.60000000     56.09000000
C25     79.68000000     39.40000000     56.55000000
C26     79.89000000     38.81000000     57.92000000
C27     80.81000000     39.60000000     58.85000000
C28     82.32000000     39.44000000     58.56000000
C29     82.98000000     38.25000000     59.27000000
C30     82.81000000     36.92000000     58.53000000
C31     83.53000000     35.79000000     59.27000000
C32     83.34000000     34.46000000     58.55000000
C33     84.04000000     34.46000000     57.19000000
C34     77.76000000     45.75000000     44.99000000
OS35     77.57000000     44.62000000     44.13000000
C36     77.55000000     44.89000000     42.80000000
O37     77.96000000     45.95000000     42.31000000
C38     77.11000000     43.69000000     41.97000000
C39     78.22000000     42.65000000     41.79000000
C40     78.29000000     41.67000000     42.96000000
C41     79.54000000     40.80000000     42.85000000
C42     79.63000000     39.82000000     44.01000000
C43     81.02000000     39.85000000     44.65000000
C44     81.24000000     41.19000000     45.36000000
C45     82.65000000     41.29000000     45.94000000
C46     82.89000000     42.68000000     46.54000000
C47     84.30000000     42.76000000     47.14000000
C48     85.34000000     42.57000000     46.04000000
C49     86.75000000     42.53000000     46.63000000
C50     87.78000000     42.21000000     45.53000000
C51     89.18000000     42.07000000     46.12000000
C52     90.19000000     41.70000000     45.04000000
 C1     57.43000000     57.57000000     44.70000000
 C2     59.77000000     57.25000000     44.37000000
 C3     58.22000000     56.10000000     42.99000000
 N4     58.48000000     57.36000000     43.69000000
 C5     58.58000000     58.46000000     42.71000000
 C6     57.41000000     58.64000000     41.71000000
OS7     56.19000000     59.10000000     42.30000000
 P8     54.98000000     59.07000000     41.28000000
OM9     54.65000000     57.65000000     41.07000000
OM10     53.95000000     59.91000000     41.90000000
OS11     55.54000000     59.85000000     40.05000000
C12     55.64000000     61.26000000     40.27000000
C13     56.77000000     61.93000000     39.50000000
OS14     57.15000000     63.22000000     40.05000000
C15     57.97000000     63.27000000     41.14000000
O16     57.95000000     62.43000000     42.05000000
C17     58.47000000     64.69000000     41.33000000
C18     57.34000000     65.63000000     41.77000000
C19     57.77000000     67.08000000     41.59000000
C20     56.61000000     68.02000000     41.89000000
C21     56.94000000     69.47000000     41.51000000
C22     58.03000000     70.02000000     42.43000000
C23     58.36000000     71.47000000     42.08000000
C24     59.46000000     72.02000000     42.95000000
C25     60.77000000     71.97000000     42.68000000
C26     61.87000000     72.53000000     43.52000000
C27     62.33000000     73.89000000     42.99000000
C28     62.87000000     73.74000000     41.57000000
C29     63.24000000     75.09000000     40.94000000
C30     64.46000000     75.70000000     41.63000000
C31     64.83000000     77.03000000     40.96000000
C32     66.06000000     77.64000000     41.63000000
C33     67.30000000     76.77000000     41.41000000
C34     56.29000000     61.90000000     38.03000000
OS35     57.19000000     62.32000000     37.00000000
C36     58.13000000     61.42000000     36.61000000
O37     58.14000000     60.24000000     36.97000000
C38     58.96000000     61.97000000     35.46000000
C39     59.09000000     63.49000000     35.41000000
C40     60.11000000     64.01000000     36.42000000
C41     60.73000000     65.30000000     35.89000000
C42     61.80000000     65.85000000     36.84000000
C43     62.67000000     66.87000000     36.13000000
C44     61.87000000     68.10000000     35.69000000
C45     62.75000000     69.01000000     34.84000000
C46     62.00000000     70.27000000     34.39000000
C47     62.86000000     71.07000000     33.42000000
C48     63.04000000     70.29000000     32.11000000
C49     63.98000000     71.02000000     31.14000000
C50     65.41000000     71.01000000     31.67000000
C51     66.36000000     71.67000000     30.67000000
C52     66.48000000     70.84000000     29.39000000
 C1     51.26000000     52.27000000     64.88000000
 C2     51.18000000     50.38000000     66.22000000
 C3     51.13000000     50.05000000     63.87000000
 N4     51.69000000     50.87000000     64.94000000
 C5     53.16000000     50.76000000     64.97000000
 C6     54.00000000     51.10000000     63.71000000
OS7     54.06000000     52.49000000     63.38000000
 P8     55.53000000     53.01000000     63.18000000
OM9     56.06000000     52.01000000     62.23000000
OM10     55.59000000     54.41000000     62.74000000
OS11     56.28000000     52.73000000     64.54000000
C12     55.92000000     53.54000000     65.68000000
C13     55.60000000     52.66000000     66.90000000
OS14     54.69000000     53.24000000     67.87000000
C15     53.79000000     52.36000000     68.39000000
O16     53.73000000     51.20000000     67.99000000
C17     52.82000000     53.00000000     69.37000000
C18     51.47000000     53.23000000     68.68000000
C19     50.36000000     53.38000000     69.71000000
C20     50.19000000     52.05000000     70.45000000
C21     49.12000000     52.12000000     71.53000000
C22     49.07000000     50.78000000     72.26000000
C23     48.05000000     50.77000000     73.39000000
C24     48.14000000     49.48000000     74.15000000
C25     48.98000000     49.25000000     75.16000000
C26     49.11000000     47.97000000     75.94000000
C27     48.33000000     48.02000000     77.26000000
C28     48.87000000     49.12000000     78.17000000
C29     48.18000000     49.09000000     79.53000000
C30     48.56000000     47.81000000     80.27000000
C31     47.95000000     47.78000000     81.68000000
C32     48.33000000     46.49000000     82.40000000
C33     49.83000000     46.42000000     82.66000000
C34     56.92000000     52.08000000     67.46000000
OS35     57.77000000     52.98000000     68.19000000
C36     57.92000000     52.67000000     69.51000000
O37     58.53000000     53.38000000     70.30000000
C38     57.21000000     51.37000000     69.87000000
C39     57.47000000     50.92000000     71.31000000
C40     58.83000000     50.22000000     71.43000000
C41     59.14000000     49.83000000     72.87000000
C42     58.24000000     48.70000000     73.36000000
C43     58.56000000     48.40000000     74.83000000
C44     58.20000000     49.62000000     75.68000000
C45     58.60000000     49.43000000     77.14000000
C46     58.28000000     50.70000000     77.93000000
C47     58.77000000     50.61000000     79.38000000
C48     60.29000000     50.52000000     79.43000000
C49     60.79000000     50.57000000     80.87000000
C50     60.25000000     49.38000000     81.67000000
C51     60.82000000     49.37000000     83.09000000
C52     62.32000000     49.04000000     83.06000000
 C1     46.13000000     50.63000000     61.90000000
 C2     46.03000000     48.27000000     61.64000000
 C3     48.13000000     49.30000000     61.91000000
 N4     46.72000000     49.36000000     62.33000000
 C5     46.53000000     49.16000000     63.78000000
 C6     47.60000000     49.61000000     64.80000000
OS7     48.23000000     50.87000000     64.58000000
 P8     47.51000000     52.15000000     65.14000000
OM9     48.32000000     53.21000000     64.55000000
OM10     46.12000000     52.01000000     64.74000000
OS11     47.73000000     51.96000000     66.67000000
C12     46.59000000     52.34000000     67.44000000
C13     45.79000000     51.15000000     67.99000000
OS14     44.60000000     51.57000000     68.71000000
C15     43.38000000     51.28000000     68.17000000
O16     43.16000000     51.26000000     66.95000000
C17     42.31000000     51.44000000     69.24000000
C18     40.94000000     50.92000000     68.80000000
C19     39.98000000     50.83000000     69.99000000
C20     40.55000000     49.86000000     71.03000000
C21     39.67000000     49.76000000     72.29000000
C22     38.46000000     48.86000000     72.06000000
C23     38.88000000     47.40000000     71.86000000
C24     37.71000000     46.50000000     71.60000000
C25     37.24000000     45.55000000     72.42000000
C26     36.06000000     44.66000000     72.16000000
C27     34.87000000     45.04000000     73.05000000
C28     35.25000000     44.92000000     74.52000000
C29     34.07000000     45.22000000     75.45000000
C30     33.01000000     44.12000000     75.36000000
C31     31.90000000     44.34000000     76.39000000
C32     30.84000000     43.25000000     76.29000000
C33     31.42000000     41.89000000     76.70000000
C34     46.80000000     50.38000000     68.87000000
OS35     46.45000000     49.07000000     69.35000000
C36     46.87000000     48.00000000     68.63000000
O37     47.15000000     48.01000000     67.43000000
C38     46.66000000     46.74000000     69.44000000
C39     47.24000000     46.87000000     70.84000000
C40     46.84000000     45.64000000     71.66000000
C41     47.06000000     45.85000000     73.16000000
C42     46.20000000     44.85000000     73.93000000
C43     46.04000000     45.28000000     75.38000000
C44     44.83000000     44.60000000     76.02000000
C45     44.57000000     45.20000000     77.40000000
C46     43.24000000     44.70000000     77.98000000
C47     42.98000000     45.37000000     79.33000000
C48     42.82000000     46.88000000     79.17000000
C49     42.68000000     47.56000000     80.53000000
C50     43.96000000     47.37000000     81.35000000
C51     43.87000000     48.09000000     82.69000000
C52     43.90000000     49.61000000     82.50000000
 C1     43.59000000     34.48000000     40.70000000
 C2     44.79000000     35.45000000     42.48000000
 C3     45.32000000     36.02000000     40.22000000
 N4     44.24000000     35.72000000     41.15000000
 C5     43.20000000     36.77000000     41.15000000
 C6     43.40000000     38.12000000     41.88000000
OS7     44.37000000     39.04000000     41.38000000
 P8     43.67000000     40.30000000     40.74000000
OM9     42.31000000     40.54000000     41.24000000
OM10     44.66000000     41.38000000     40.90000000
OS11     43.53000000     39.81000000     39.27000000
C12     44.65000000     40.12000000     38.44000000
C13     45.24000000     38.94000000     37.66000000
OS14     46.62000000     39.12000000     37.26000000
C15     47.44000000     38.13000000     37.69000000
O16     47.42000000     37.83000000     38.89000000
C17     48.69000000     38.01000000     36.85000000
C18     49.11000000     36.55000000     36.79000000
C19     50.45000000     36.33000000     36.10000000
C20     50.74000000     34.84000000     36.12000000
C21     52.09000000     34.43000000     35.53000000
C22     52.24000000     32.92000000     35.73000000
C23     53.62000000     32.40000000     35.32000000
C24     53.80000000     31.00000000     35.80000000
C25     54.75000000     30.58000000     36.65000000
C26     54.95000000     29.19000000     37.18000000
C27     56.10000000     28.43000000     36.51000000
C28     55.77000000     28.03000000     35.08000000
C29     56.87000000     27.23000000     34.36000000
C30     56.78000000     25.72000000     34.57000000
C31     57.43000000     25.22000000     35.87000000
C32     57.31000000     23.70000000     35.99000000
C33     58.11000000     22.99000000     34.90000000
C34     44.24000000     38.55000000     36.55000000
OS35     43.10000000     37.77000000     36.98000000
C36     43.26000000     36.42000000     37.02000000
O37     44.33000000     35.87000000     37.27000000
C38     41.90000000     35.78000000     37.27000000
C39     41.79000000     34.37000000     36.68000000
C40     42.38000000     33.29000000     37.57000000
C41     42.29000000     31.92000000     36.90000000
C42     42.85000000     30.82000000     37.80000000
C43     42.87000000     29.49000000     37.04000000
C44     43.86000000     29.58000000     35.88000000
C45     43.98000000     28.24000000     35.14000000
C46     44.95000000     28.37000000     33.97000000
C47     45.18000000     27.01000000     33.31000000
C48     43.89000000     26.48000000     32.69000000
C49     44.15000000     25.14000000     31.99000000
C50     42.86000000     24.59000000     31.38000000
C51     43.13000000     23.28000000     30.63000000
C52     44.03000000     23.53000000     29.42000000
 C1     33.32000000     37.91000000     45.79000000
 C2     31.62000000     36.78000000     44.63000000
 C3     31.80000000     39.16000000     44.45000000
 N4     32.55000000     37.91000000     44.54000000
 C5     33.40000000     37.76000000     43.33000000
 C6     34.61000000     38.69000000     43.07000000
OS7     35.68000000     38.47000000     43.99000000
 P8     37.00000000     37.94000000     43.30000000
OM9     37.19000000     38.94000000     42.25000000
OM10     37.89000000     37.89000000     44.46000000
OS11     36.40000000     36.52000000     42.96000000
C12     36.71000000     35.54000000     43.96000000
C13     35.47000000     34.76000000     44.42000000
OS14     35.69000000     33.87000000     45.54000000
C15     34.87000000     34.03000000     46.62000000
O16     34.41000000     35.12000000     46.94000000
C17     34.88000000     32.75000000     47.44000000
C18     34.53000000     32.91000000     48.92000000
C19     34.03000000     31.55000000     49.44000000
C20     33.70000000     31.50000000     50.93000000
C21     34.96000000     31.62000000     51.79000000
C22     34.81000000     30.84000000     53.10000000
C23     34.92000000     29.34000000     52.83000000
C24     34.81000000     28.50000000     54.08000000
C25     34.47000000     27.20000000     54.14000000
C26     34.35000000     26.39000000     55.40000000
C27     33.30000000     25.28000000     55.31000000
C28     31.93000000     25.87000000     54.98000000
C29     30.81000000     24.83000000     54.97000000
C30     30.39000000     24.46000000     56.39000000
C31     29.16000000     23.55000000     56.37000000
C32     28.69000000     23.22000000     57.79000000
C33     28.20000000     24.47000000     58.51000000
C34     34.96000000     34.03000000     43.16000000
OS35     33.66000000     33.42000000     43.27000000
C36     33.55000000     32.30000000     42.51000000
O37     34.45000000     31.87000000     41.80000000
C38     32.19000000     31.64000000     42.67000000
C39     31.09000000     32.65000000     42.95000000
C40     29.72000000     32.00000000     42.71000000
C41     28.57000000     32.98000000     42.95000000
C42     28.16000000     33.14000000     44.42000000
C43     27.07000000     32.14000000     44.82000000
C44     27.62000000     30.82000000     45.36000000
C45     26.50000000     29.77000000     45.44000000
C46     26.17000000     29.27000000     44.03000000
C47     24.98000000     28.31000000     44.04000000
C48     23.68000000     29.07000000     44.30000000
C49     22.47000000     28.14000000     44.18000000
C50     21.17000000     28.94000000     44.34000000
C51     19.95000000     28.03000000     44.24000000
C52     18.66000000     28.83000000     44.43000000
 C1     35.31000000     50.25000000     62.00000000
 C2     36.93000000     50.77000000     60.34000000
 C3     34.60000000     50.96000000     59.83000000
 N4     35.62000000     51.15000000     60.87000000
 C5     35.68000000     52.56000000     61.31000000
 C6     34.53000000     53.18000000     62.11000000
OS7     33.26000000     53.20000000     61.45000000
 P8     32.11000000     52.48000000     62.26000000
OM9     31.44000000     51.73000000     61.18000000
OM10     32.74000000     51.75000000     63.36000000
OS11     31.32000000     53.75000000     62.74000000
C12     31.79000000     54.24000000     64.00000000
C13     32.31000000     55.68000000     63.96000000
OS14     33.24000000     56.00000000     65.03000000
C15     34.48000000     56.42000000     64.65000000
O16     35.10000000     55.95000000     63.69000000
C17     35.06000000     57.38000000     65.67000000
C18     36.17000000     56.80000000     66.54000000
C19     35.59000000     55.98000000     67.69000000
C20     36.69000000     55.68000000     68.70000000
C21     36.15000000     54.98000000     69.94000000
C22     35.11000000     55.85000000     70.64000000
C23     34.74000000     55.25000000     72.00000000
C24     33.59000000     55.95000000     72.65000000
C25     32.61000000     55.34000000     73.34000000
C26     31.44000000     55.99000000     74.00000000
C27     31.77000000     56.51000000     75.40000000
C28     30.53000000     57.10000000     76.06000000
C29     30.86000000     57.75000000     77.40000000
C30     31.71000000     59.00000000     77.20000000
C31     31.98000000     59.70000000     78.53000000
C32     32.81000000     60.97000000     78.32000000
C33     32.02000000     62.02000000     77.54000000
C34     31.06000000     56.58000000     63.90000000
OS35     31.26000000     57.99000000     64.09000000
C36     31.53000000     58.75000000     63.00000000
O37     31.76000000     58.30000000     61.87000000
C38     31.64000000     60.22000000     63.41000000
C39     30.72000000     61.13000000     62.59000000
C40     29.50000000     61.66000000     63.35000000
C41     28.41000000     60.60000000     63.54000000
C42     27.14000000     61.18000000     64.16000000
C43     26.10000000     60.08000000     64.32000000
C44     26.49000000     59.10000000     65.43000000
C45     26.00000000     59.60000000     66.79000000
C46     26.47000000     58.67000000     67.91000000
C47     25.73000000     59.00000000     69.21000000
C48     24.26000000     58.60000000     69.07000000
C49     23.47000000     58.90000000     70.35000000
C50     23.32000000     60.41000000     70.55000000
C51     22.48000000     60.70000000     71.80000000
C52     21.04000000     60.23000000     71.62000000
 C1     36.16000000     61.66000000     42.35000000
 C2     37.79000000     61.36000000     40.69000000
 C3     36.27000000     59.59000000     41.11000000
 N4     36.40000000     61.05000000     41.04000000
 C5     35.52000000     61.67000000     40.02000000
 C6     34.00000000     61.37000000     40.01000000
OS7     33.32000000     61.76000000     41.19000000
 P8     32.65000000     60.57000000     41.94000000
OM9     33.24000000     59.28000000     41.54000000
OM10     32.73000000     60.92000000     43.35000000
OS11     31.19000000     60.70000000     41.37000000
C12     30.30000000     61.50000000     42.15000000
C13     30.44000000     63.03000000     42.12000000
OS14     29.59000000     63.69000000     43.11000000
C15     29.96000000     63.66000000     44.43000000
O16     30.54000000     62.70000000     44.94000000
C17     29.20000000     64.69000000     45.24000000
C18     30.16000000     65.40000000     46.19000000
C19     29.42000000     66.31000000     47.18000000
C20     30.41000000     67.03000000     48.10000000
C21     29.67000000     67.80000000     49.19000000
C22     30.63000000     68.57000000     50.10000000
C23     29.88000000     69.30000000     51.22000000
C24     28.92000000     70.32000000     50.71000000
C25     27.58000000     70.29000000     50.84000000
C26     26.62000000     71.31000000     50.31000000
C27     25.48000000     71.60000000     51.29000000
C28     24.66000000     70.34000000     51.55000000
C29     23.51000000     70.62000000     52.53000000
C30     22.43000000     71.48000000     51.89000000
C31     21.27000000     71.70000000     52.86000000
C32     20.16000000     72.54000000     52.21000000
C33     19.50000000     71.77000000     51.07000000
C34     30.17000000     63.39000000     40.65000000
OS35     30.47000000     64.74000000     40.27000000
C36     29.73000000     65.20000000     39.23000000
O37     29.09000000     64.48000000     38.47000000
C38     29.94000000     66.69000000     39.04000000
C39     28.79000000     67.47000000     39.68000000
C40     28.84000000     67.36000000     41.21000000
C41     27.66000000     68.06000000     41.87000000
C42     27.69000000     67.85000000     43.39000000
C43     26.51000000     68.48000000     44.15000000
C44     25.20000000     67.69000000     44.02000000
C45     24.32000000     68.19000000     42.88000000
C46     23.07000000     67.33000000     42.70000000
C47     22.30000000     67.80000000     41.46000000
C48     23.12000000     67.54000000     40.20000000
C49     22.45000000     68.17000000     38.97000000
C50     22.48000000     69.69000000     39.07000000
C51     21.85000000     70.34000000     37.83000000
C52     22.73000000     70.10000000     36.60000000
 C1     37.88000000     58.17000000     61.39000000
 C2     36.49000000     56.28000000     61.04000000
 C3     35.49000000     58.42000000     61.25000000
 N4     36.66000000     57.70000000     60.72000000
 C5     36.71000000     57.79000000     59.24000000
 C6     37.02000000     59.14000000     58.55000000
OS7     38.42000000     59.42000000     58.56000000
 P8     38.78000000     60.95000000     58.59000000
OM9     40.23000000     60.87000000     58.43000000
OM10     38.00000000     61.52000000     57.50000000
OS11     38.25000000     61.30000000     60.03000000
C12     37.30000000     62.37000000     60.00000000
C13     36.12000000     62.19000000     60.97000000
OS14     34.99000000     63.02000000     60.63000000
C15     33.85000000     62.30000000     60.48000000
O16     33.87000000     61.07000000     60.58000000
C17     32.62000000     63.15000000     60.18000000
C18     32.30000000     63.17000000     58.68000000
C19     30.80000000     63.34000000     58.40000000
C20     30.21000000     64.65000000     58.92000000
C21     28.77000000     64.80000000     58.41000000
C22     28.04000000     66.00000000     59.02000000
C23     26.68000000     66.24000000     58.36000000
C24     25.72000000     65.10000000     58.52000000
C25     24.81000000     64.70000000     57.62000000
C26     23.85000000     63.55000000     57.76000000
C27     22.41000000     63.89000000     57.36000000
C28     21.82000000     65.00000000     58.23000000
C29     20.36000000     65.27000000     57.87000000
C30     19.45000000     64.13000000     58.35000000
C31     18.00000000     64.40000000     57.96000000
C32     17.06000000     63.35000000     58.56000000
C33     16.97000000     63.51000000     60.08000000
C34     36.71000000     62.35000000     62.39000000
OS35     35.84000000     62.04000000     63.50000000
C36     36.39000000     61.23000000     64.44000000
O37     37.28000000     60.42000000     64.18000000
C38     35.44000000     61.13000000     65.62000000
C39     36.18000000     61.32000000     66.95000000
C40     35.41000000     60.65000000     68.09000000
C41     34.08000000     61.35000000     68.36000000
C42     33.24000000     60.52000000     69.34000000
C43     31.92000000     61.24000000     69.65000000
C44     31.11000000     61.46000000     68.38000000
C45     29.77000000     62.13000000     68.70000000
C46     29.05000000     62.53000000     67.41000000
C47     27.66000000     63.10000000     67.72000000
C48     27.75000000     64.40000000     68.51000000
C49     26.35000000     64.93000000     68.82000000
C50     25.60000000     63.97000000     69.74000000
C51     24.20000000     64.49000000     70.06000000
C52     24.27000000     65.76000000     70.92000000
 C1     59.74000000     41.43000000     46.32000000
 C2     58.14000000     40.22000000     47.62000000
 C3     58.39000000     39.71000000     45.32000000
 N4     59.11000000     40.12000000     46.53000000
 C5     60.09000000     39.09000000     46.93000000
 C6     61.24000000     38.70000000     45.98000000
OS7     62.13000000     39.78000000     45.68000000
 P8     63.21000000     40.15000000     46.78000000
OM9     63.07000000     41.62000000     46.73000000
OM10     62.80000000     39.53000000     48.03000000
OS11     64.44000000     39.52000000     46.05000000
C12     64.65000000     38.16000000     46.43000000
C13     65.10000000     37.23000000     45.29000000
OS14     64.98000000     35.83000000     45.67000000
C15     63.75000000     35.24000000     45.63000000
O16     62.72000000     35.81000000     45.28000000
C17     63.84000000     33.82000000     46.17000000
C18     62.64000000     32.97000000     45.76000000
C19     62.70000000     31.59000000     46.42000000
C20     61.50000000     30.73000000     46.01000000
C21     61.37000000     29.41000000     46.78000000
C22     62.41000000     28.35000000     46.41000000
C23     63.56000000     28.26000000     47.43000000
C24     63.06000000     27.89000000     48.80000000
C25     63.33000000     26.76000000     49.46000000
C26     62.83000000     26.41000000     50.83000000
C27     63.94000000     25.98000000     51.78000000
C28     64.64000000     24.73000000     51.26000000
C29     63.74000000     23.49000000     51.30000000
C30     64.45000000     22.29000000     50.68000000
C31     63.58000000     21.04000000     50.74000000
C32     64.28000000     19.87000000     50.05000000
C33     65.55000000     19.47000000     50.81000000
C34     66.52000000     37.71000000     44.93000000
OS35     67.07000000     37.36000000     43.64000000
C36     66.81000000     38.21000000     42.60000000
O37     65.85000000     38.98000000     42.57000000
C38     67.66000000     37.88000000     41.39000000
C39     68.33000000     36.50000000     41.50000000
C40     68.52000000     35.90000000     40.11000000
C41     69.07000000     34.48000000     40.20000000
C42     68.97000000     33.76000000     38.85000000
C43     69.52000000     32.34000000     38.93000000
C44     68.76000000     31.53000000     39.99000000