6100
Energy = -77855.19602876 au
 C1     64.60000000     56.37000000     47.60000000
 C2     66.20000000     54.83000000     48.24000000
 C3     65.53000000     54.92000000     45.97000000
 N4     65.83000000     55.72000000     47.16000000
 C5     66.95000000     56.59000000     46.70000000
 C6     67.04000000     58.10000000     47.04000000
OS7     65.84000000     58.87000000     46.84000000
 P8     65.31000000     59.11000000     45.37000000
OM9     64.73000000     57.79000000     45.11000000
OM10     64.32000000     60.17000000     45.52000000
OS11     66.58000000     59.21000000     44.47000000
C12     66.89000000     60.54000000     44.07000000
C13     68.32000000     60.92000000     44.48000000
OS14     68.61000000     62.32000000     44.27000000
C15     68.18000000     63.18000000     45.23000000
O16     67.18000000     62.97000000     45.92000000
C17     68.82000000     64.54000000     44.99000000
C18     68.22000000     65.66000000     45.84000000
C19     68.96000000     66.95000000     45.52000000
C20     70.36000000     66.99000000     46.15000000
C21     70.24000000     67.21000000     47.66000000
C22     71.60000000     67.31000000     48.36000000
C23     71.36000000     67.52000000     49.85000000
C24     72.59000000     67.49000000     50.71000000
C25     72.62000000     67.58000000     52.04000000
C26     73.85000000     67.57000000     52.90000000
C27     73.78000000     68.49000000     54.12000000
C28     73.62000000     69.95000000     53.70000000
C29     73.95000000     70.93000000     54.82000000
C30     75.45000000     70.91000000     55.09000000
C31     75.87000000     72.02000000     56.05000000
C32     77.37000000     71.95000000     56.32000000
C33     78.17000000     72.16000000     55.03000000
C34     69.26000000     59.94000000     43.76000000
OS35     70.62000000     59.89000000     44.23000000
C36     71.37000000     58.85000000     43.76000000
O37     70.85000000     57.80000000     43.42000000
C38     72.79000000     58.99000000     44.29000000
C39     73.88000000     58.99000000     43.21000000
C40     75.25000000     58.74000000     43.84000000
C41     75.74000000     59.88000000     44.73000000
C42     76.53000000     59.35000000     45.94000000
C43     77.50000000     60.42000000     46.45000000
C44     76.79000000     61.75000000     46.67000000
C45     77.84000000     62.84000000     46.89000000
C46     77.36000000     64.20000000     46.36000000
C47     78.56000000     65.14000000     46.31000000
C48     79.65000000     64.52000000     45.43000000
C49     80.94000000     65.33000000     45.43000000
C50     82.05000000     64.54000000     44.72000000
C51     83.36000000     65.31000000     44.71000000
C52     83.27000000     66.55000000     43.81000000
 C1     48.31000000     38.85000000     46.02000000
 C2     47.78000000     40.89000000     44.91000000
 C3     50.04000000     40.07000000     44.86000000
 N4     48.62000000     39.70000000     44.88000000
 C5     48.31000000     38.88000000     43.70000000
 C6     48.38000000     39.60000000     42.35000000
OS7     49.59000000     40.16000000     41.84000000
 P8     50.34000000     39.11000000     40.90000000
OM9     51.32000000     40.04000000     40.35000000
OM10     50.78000000     38.31000000     42.04000000
OS11     49.12000000     38.83000000     39.94000000
C12     48.60000000     37.49000000     39.90000000
C13     47.16000000     37.56000000     39.36000000
OS14     46.16000000     36.79000000     40.09000000
C15     45.43000000     37.30000000     41.12000000
O16     45.71000000     38.30000000     41.80000000
C17     44.34000000     36.31000000     41.44000000
C18     43.40000000     36.14000000     40.25000000
C19     42.29000000     35.12000000     40.49000000
C20     41.34000000     35.17000000     39.30000000
C21     40.05000000     34.36000000     39.40000000
C22     39.09000000     34.85000000     38.31000000
C23     37.61000000     34.62000000     38.62000000
C24     37.22000000     33.18000000     38.67000000
C25     36.06000000     32.71000000     39.15000000
C26     35.67000000     31.26000000     39.20000000
C27     34.69000000     30.89000000     38.08000000
C28     34.47000000     29.38000000     38.07000000
C29     33.54000000     28.93000000     36.94000000
C30     34.10000000     29.32000000     35.57000000
C31     33.32000000     28.65000000     34.44000000
C32     33.65000000     29.27000000     33.08000000
C33     35.12000000     29.12000000     32.71000000
C34     47.22000000     37.31000000     37.85000000
OS35     48.20000000     36.33000000     37.47000000
C36     47.99000000     35.61000000     36.33000000
O37     48.86000000     34.89000000     35.85000000
C38     46.66000000     35.85000000     35.68000000
C39     46.59000000     34.77000000     34.60000000
C40     45.35000000     34.86000000     33.72000000
C41     45.40000000     33.64000000     32.81000000
C42     44.00000000     33.19000000     32.39000000
C43     44.17000000     31.88000000     31.65000000
C44     44.86000000     30.87000000     32.57000000
C45     45.33000000     29.69000000     31.74000000
C46     44.12000000     28.98000000     31.13000000
C47     44.56000000     28.02000000     30.04000000
C48     45.47000000     26.93000000     30.59000000
C49     45.87000000     25.99000000     29.45000000
C50     46.70000000     26.75000000     28.41000000
C51     46.94000000     25.89000000     27.17000000
C52     47.81000000     24.68000000     27.51000000
 C1     58.53000000     46.97000000     63.27000000
 C2     58.89000000     44.73000000     62.63000000
 C3     58.26000000     46.39000000     61.00000000
 N4     59.04000000     46.12000000     62.18000000
 C5     60.41000000     46.38000000     61.72000000
 C6     61.57000000     46.50000000     62.71000000
OS7     61.35000000     47.65000000     63.47000000
 P8     61.54000000     47.41000000     65.02000000
OM9     63.00000000     47.36000000     64.96000000
OM10     60.51000000     48.38000000     65.38000000
OS11     60.89000000     45.98000000     65.16000000
C12     61.72000000     45.07000000     65.87000000
C13     61.33000000     43.64000000     65.47000000
OS14     60.50000000     42.98000000     66.44000000
C15     59.16000000     43.01000000     66.18000000
O16     58.71000000     43.00000000     65.04000000
C17     58.41000000     42.52000000     67.40000000
C18     56.90000000     42.73000000     67.32000000
C19     56.31000000     42.05000000     68.55000000
C20     56.84000000     40.62000000     68.53000000
C21     56.99000000     40.01000000     69.92000000
C22     58.09000000     38.95000000     69.81000000
C23     58.47000000     38.31000000     71.14000000
C24     59.71000000     37.49000000     70.94000000
C25     59.75000000     36.27000000     70.39000000
C26     60.97000000     35.44000000     70.14000000
C27     60.85000000     34.04000000     70.76000000
C28     60.81000000     34.13000000     72.29000000
C29     60.77000000     32.73000000     72.90000000
C30     62.04000000     31.96000000     72.54000000
C31     62.06000000     30.58000000     73.19000000
C32     63.31000000     29.81000000     72.78000000
C33     64.57000000     30.51000000     73.30000000
C34     62.64000000     42.91000000     65.15000000
OS35     63.38000000     43.53000000     64.08000000
C36     64.66000000     43.09000000     64.00000000
O37     65.55000000     43.76000000     63.48000000
C38     64.87000000     41.82000000     64.78000000
C39     66.34000000     41.45000000     64.77000000
C40     66.53000000     40.11000000     65.48000000
C41     68.00000000     39.71000000     65.53000000
C42     68.15000000     38.35000000     66.23000000
C43     68.80000000     38.48000000     67.61000000
C44     67.94000000     39.28000000     68.59000000
C45     68.66000000     39.42000000     69.93000000
C46     67.92000000     40.37000000     70.87000000
C47     68.68000000     40.41000000     72.19000000
C48     70.09000000     40.98000000     71.98000000
C49     70.98000000     40.65000000     73.18000000
C50     71.25000000     39.15000000     73.22000000
C51     72.06000000     38.76000000     74.46000000
C52     73.47000000     39.37000000     74.39000000
 C1     53.85000000     38.85000000     56.26000000
 C2     54.21000000     37.03000000     54.82000000
 C3     55.38000000     39.16000000     54.51000000
 N4     54.86000000     38.18000000     55.46000000
 C5     55.98000000     37.58000000     56.22000000
 C6     57.16000000     38.46000000     56.68000000
OS7     56.78000000     39.65000000     57.36000000
 P8     56.51000000     39.49000000     58.92000000
OM9     57.41000000     40.56000000     59.33000000
OM10     55.09000000     39.81000000     58.74000000
OS11     56.72000000     37.99000000     59.29000000
C12     55.60000000     37.37000000     59.92000000
C13     55.23000000     36.02000000     59.27000000
OS14     53.90000000     35.55000000     59.58000000
C15     52.99000000     35.69000000     58.58000000
O16     52.92000000     36.74000000     57.94000000
C17     51.76000000     34.84000000     58.83000000
C18     52.03000000     33.36000000     58.65000000
C19     50.82000000     32.66000000     58.02000000
C20     51.02000000     31.15000000     57.89000000
C21     49.85000000     30.61000000     57.08000000
C22     49.72000000     29.09000000     57.04000000
C23     48.44000000     28.74000000     56.29000000
C24     48.37000000     27.30000000     55.92000000
C25     49.34000000     26.40000000     56.18000000
C26     49.32000000     24.95000000     55.80000000
C27     48.73000000     24.08000000     56.90000000
C28     49.53000000     24.22000000     58.20000000
C29     49.17000000     23.10000000     59.17000000
C30     49.68000000     21.77000000     58.61000000
C31     49.39000000     20.61000000     59.56000000
C32     49.98000000     19.32000000     58.98000000
C33     51.50000000     19.40000000     58.92000000
C34     56.39000000     35.06000000     59.60000000
OS35     56.89000000     34.28000000     58.51000000
C36     58.13000000     34.59000000     58.05000000
O37     58.49000000     35.76000000     57.88000000
C38     58.55000000     33.48000000     57.12000000
C39     59.26000000     32.30000000     57.77000000
C40     59.08000000     31.12000000     56.81000000
C41     59.47000000     29.79000000     57.45000000
C42     58.98000000     28.61000000     56.62000000
C43     59.45000000     27.34000000     57.32000000
C44     59.00000000     27.41000000     58.78000000
C45     59.63000000     26.28000000     59.60000000
C46     58.95000000     24.95000000     59.33000000
C47     59.69000000     23.84000000     60.07000000
C48     59.81000000     24.19000000     61.56000000
C49     60.45000000     23.04000000     62.34000000
C50     61.88000000     22.77000000     61.86000000
C51     62.54000000     21.68000000     62.71000000
C52     62.79000000     22.18000000     64.13000000
 C1     50.47000000     38.19000000     59.06000000
 C2     52.39000000     39.37000000     59.54000000
 C3     50.71000000     40.37000000     58.13000000
 N4     50.97000000     39.54000000     59.31000000
 C5     50.36000000     40.07000000     60.54000000
 C6     48.82000000     40.05000000     60.60000000
OS7     48.15000000     41.00000000     59.75000000
 P8     46.87000000     40.42000000     59.00000000
OM9     46.52000000     41.75000000     58.43000000
OM10     47.68000000     39.51000000     58.21000000
OS11     46.13000000     39.94000000     60.30000000
C12     45.72000000     38.55000000     60.35000000
C13     46.30000000     37.77000000     61.55000000
OS14     46.46000000     36.35000000     61.32000000
C15     47.72000000     35.92000000     61.06000000
O16     48.58000000     36.68000000     60.61000000
C17     47.83000000     34.40000000     61.15000000
C18     49.29000000     33.94000000     61.23000000
C19     49.43000000     32.51000000     61.77000000
C20     50.89000000     32.04000000     61.85000000
C21     50.99000000     30.71000000     62.60000000
C22     52.31000000     29.97000000     62.34000000
C23     52.30000000     29.29000000     60.97000000
C24     53.51000000     28.45000000     60.72000000
C25     54.51000000     28.23000000     61.58000000
C26     55.74000000     27.40000000     61.32000000
C27     55.80000000     26.15000000     62.19000000
C28     55.72000000     26.55000000     63.67000000
C29     55.89000000     25.32000000     64.57000000
C30     57.36000000     24.92000000     64.67000000
C31     57.52000000     23.70000000     65.59000000
C32     58.99000000     23.42000000     65.87000000
C33     59.62000000     24.55000000     66.67000000
C34     45.56000000     38.20000000     62.83000000
OS35     46.49000000     38.46000000     63.91000000
C36     46.10000000     37.98000000     65.13000000
O37     44.93000000     37.84000000     65.46000000
C38     47.25000000     38.11000000     66.12000000
C39     47.24000000     37.02000000     67.20000000
C40     48.65000000     36.92000000     67.79000000
C41     48.93000000     35.61000000     68.53000000
C42     50.44000000     35.41000000     68.65000000
C43     50.78000000     34.03000000     69.22000000
C44     50.32000000     32.90000000     68.30000000
C45     50.60000000     31.55000000     68.96000000
C46     49.89000000     30.40000000     68.24000000
C47     49.96000000     29.18000000     69.15000000
C48     49.32000000     29.57000000     70.49000000
C49     49.51000000     28.50000000     71.57000000
C50     49.06000000     29.08000000     72.91000000
C51     49.26000000     28.08000000     74.05000000
C52     48.26000000     26.93000000     73.95000000
 C1     47.33000000     37.72000000     49.41000000
 C2     45.90000000     39.35000000     48.39000000
 C3     46.73000000     39.67000000     50.65000000
 N4     46.27000000     38.71000000     49.64000000
 C5     45.04000000     38.01000000     50.04000000
 C6     45.03000000     37.04000000     51.21000000
OS7     45.19000000     37.72000000     52.44000000
 P8     44.60000000     36.93000000     53.67000000
OM9     45.40000000     37.88000000     54.44000000
OM10     43.25000000     37.21000000     53.21000000
OS11     45.34000000     35.56000000     53.40000000
C12     44.53000000     34.39000000     53.56000000
C13     44.59000000     33.39000000     52.39000000
OS14     43.87000000     32.15000000     52.64000000
C15     43.33000000     31.68000000     51.49000000
O16     43.33000000     32.40000000     50.50000000
C17     42.63000000     30.33000000     51.54000000
C18     41.93000000     30.20000000     50.19000000
C19     40.92000000     29.05000000     50.11000000
C20     40.17000000     29.16000000     48.79000000
C21     38.94000000     28.25000000     48.78000000
C22     37.94000000     28.72000000     47.72000000
C23     36.59000000     28.05000000     47.96000000
C24     35.55000000     28.39000000     46.93000000
C25     34.24000000     28.51000000     47.17000000
C26     33.14000000     28.78000000     46.19000000
C27     32.01000000     27.77000000     46.41000000
C28     32.65000000     26.38000000     46.43000000
C29     31.68000000     25.23000000     46.68000000
C30     32.52000000     23.98000000     46.95000000
C31     31.67000000     22.71000000     47.06000000
C32     31.23000000     22.25000000     45.67000000
C33     32.44000000     21.83000000     44.83000000
C34     46.09000000     33.22000000     52.05000000
OS35     46.36000000     32.81000000     50.70000000
C36     46.79000000     31.53000000     50.57000000
O37     47.53000000     30.98000000     51.39000000
C38     46.52000000     31.04000000     49.16000000
C39     45.85000000     29.66000000     49.17000000
C40     45.26000000     29.34000000     47.80000000
C41     44.66000000     27.93000000     47.75000000
C42     43.92000000     27.70000000     46.43000000
C43     43.45000000     26.25000000     46.35000000
C44     42.50000000     25.93000000     47.50000000
C45     42.24000000     24.43000000     47.57000000
C46     41.45000000     24.06000000     48.83000000
C47     41.38000000     22.54000000     48.98000000
C48     42.78000000     21.98000000     49.23000000
C49     42.77000000     20.45000000     49.28000000
C50     42.41000000     19.88000000     47.90000000
C51     42.44000000     18.35000000     47.92000000
C52     43.86000000     17.83000000     48.11000000
 C1     70.43000000     54.77000000     45.82000000
 C2     69.82000000     52.70000000     46.87000000
 C3     72.03000000     53.10000000     46.45000000
 N4     70.69000000     53.32000000     45.90000000
 C5     70.43000000     52.68000000     44.60000000
 C6     71.30000000     52.84000000     43.35000000
OS7     71.44000000     54.19000000     43.00000000
 P8     72.85000000     54.41000000     42.33000000
OM9     73.26000000     53.20000000     41.61000000
OM10     72.94000000     55.79000000     41.84000000
OS11     73.56000000     54.29000000     43.74000000
C12     73.73000000     55.51000000     44.43000000
C13     74.63000000     55.40000000     45.67000000
OS14     74.49000000     56.55000000     46.55000000
C15     73.60000000     56.59000000     47.59000000
O16     72.69000000     55.78000000     47.77000000
C17     73.74000000     57.94000000     48.26000000
C18     74.12000000     57.88000000     49.74000000
C19     72.90000000     57.87000000     50.65000000
C20     73.33000000     58.06000000     52.11000000
C21     74.08000000     59.38000000     52.24000000
C22     74.78000000     59.49000000     53.59000000
C23     75.73000000     60.69000000     53.58000000
C24     76.51000000     60.84000000     54.86000000
C25     77.74000000     60.36000000     55.06000000
C26     78.58000000     60.49000000     56.29000000
C27     79.64000000     61.57000000     56.10000000
C28     80.50000000     61.24000000     54.87000000
C29     81.61000000     62.27000000     54.66000000
C30     82.71000000     62.10000000     55.72000000
C31     83.88000000     63.04000000     55.45000000
C32     85.00000000     62.82000000     56.47000000
C33     86.20000000     63.71000000     56.16000000
C34     76.08000000     55.18000000     45.18000000
OS35     76.35000000     54.03000000     44.34000000
C36     76.68000000     54.29000000     43.04000000
O37     77.03000000     55.41000000     42.65000000
C38     76.73000000     53.02000000     42.22000000
C39     78.13000000     52.71000000     41.68000000
C40     79.06000000     52.13000000     42.75000000
C41     80.10000000     53.13000000     43.27000000
C42     79.94000000     53.42000000     44.76000000
C43     81.09000000     54.30000000     45.23000000
C44     81.04000000     54.65000000     46.72000000
C45     82.38000000     55.26000000     47.11000000
C46     82.62000000     56.60000000     46.40000000
C47     84.11000000     56.79000000     46.12000000
C48     84.53000000     55.92000000     44.93000000
C49     86.04000000     55.85000000     44.74000000
C50     86.69000000     55.05000000     45.87000000
C51     88.18000000     54.83000000     45.59000000
C52     88.38000000     53.89000000     44.40000000
 C1     37.95000000     44.50000000     59.78000000
 C2     36.44000000     43.69000000     61.46000000
 C3     37.48000000     42.16000000     60.03000000
 N4     36.92000000     43.51000000     60.09000000
 C5     35.79000000     43.55000000     59.16000000
 C6     36.09000000     43.40000000     57.65000000
OS7     35.23000000     42.54000000     56.92000000
 P8     33.81000000     43.06000000     56.51000000
OM9     34.31000000     44.25000000     55.80000000
OM10     33.14000000     42.02000000     55.75000000
OS11     33.06000000     43.47000000     57.84000000
C12     32.33000000     42.48000000     58.59000000
C13     31.95000000     43.03000000     59.99000000
OS14     32.27000000     42.24000000     61.16000000
C15     32.84000000     42.98000000     62.15000000
O16     33.53000000     43.98000000     61.90000000
C17     32.71000000     42.28000000     63.50000000
C18     33.93000000     41.44000000     63.88000000
C19     34.84000000     42.17000000     64.87000000
C20     34.16000000     42.34000000     66.24000000
C21     35.18000000     42.72000000     67.32000000
C22     34.48000000     43.18000000     68.60000000
C23     35.51000000     43.54000000     69.68000000
C24     34.89000000     44.27000000     70.83000000
C25     34.36000000     43.75000000     71.94000000
C26     33.77000000     44.58000000     73.04000000
C27     34.79000000     44.86000000     74.15000000
C28     34.96000000     43.67000000     75.09000000
C29     33.82000000     43.66000000     76.11000000
C30     33.94000000     44.88000000     77.02000000
C31     32.77000000     44.99000000     78.01000000
C32     32.89000000     46.27000000     78.83000000
C33     31.70000000     46.44000000     79.77000000
C34     30.49000000     43.49000000     59.93000000
OS35     30.19000000     44.85000000     60.30000000
C36     29.61000000     44.99000000     61.53000000
O37     30.08000000     44.52000000     62.55000000
C38     28.77000000     46.26000000     61.55000000
C39     27.40000000     45.89000000     62.12000000
C40     26.49000000     47.10000000     62.33000000
C41     25.38000000     46.64000000     63.26000000
C42     26.08000000     45.98000000     64.44000000
C43     25.12000000     45.31000000     65.42000000
C44     25.92000000     44.42000000     66.37000000
C45     24.98000000     43.85000000     67.43000000
C46     25.67000000     42.86000000     68.37000000
C47     24.64000000     42.44000000     69.41000000
C48     23.46000000     41.77000000     68.72000000
C49     22.18000000     41.89000000     69.55000000
C50     21.77000000     43.36000000     69.67000000
C51     20.42000000     43.52000000     70.35000000
C52     19.30000000     43.01000000     69.44000000
 C1     46.64000000     44.72000000     62.34000000
 C2     46.14000000     42.66000000     61.41000000
 C3     47.87000000     43.95000000     60.41000000
 N4     47.25000000     43.57000000     61.68000000
 C5     48.15000000     42.81000000     62.57000000
 C6     49.59000000     43.31000000     62.81000000
OS7     49.60000000     44.70000000     63.11000000
 P8     49.41000000     45.17000000     64.63000000
OM9     50.73000000     45.69000000     64.92000000
OM10     48.26000000     46.03000000     64.33000000
OS11     49.01000000     43.81000000     65.31000000
C12     47.85000000     43.89000000     66.12000000
C13     46.85000000     42.73000000     65.89000000
OS14     45.74000000     43.24000000     65.08000000
C15     44.63000000     42.66000000     64.51000000
O16     44.22000000     43.21000000     63.48000000
C17     44.17000000     41.31000000     65.01000000
C18     42.75000000     41.02000000     64.52000000
C19     41.83000000     40.61000000     65.68000000
C20     41.93000000     39.13000000     66.05000000
C21     41.31000000     38.29000000     64.94000000
C22     40.95000000     36.86000000     65.36000000
C23     40.06000000     36.24000000     64.28000000
C24     39.74000000     34.79000000     64.47000000
C25     38.53000000     34.22000000     64.38000000
C26     38.25000000     32.76000000     64.54000000
C27     37.10000000     32.44000000     65.50000000
C28     37.41000000     32.91000000     66.92000000
C29     36.46000000     32.27000000     67.93000000
C30     36.78000000     30.78000000     68.07000000
C31     35.90000000     30.11000000     69.13000000
C32     36.29000000     28.64000000     69.30000000
C33     37.71000000     28.51000000     69.86000000
C34     46.69000000     42.01000000     67.25000000
OS35     47.71000000     41.02000000     67.50000000
C36     48.73000000     41.36000000     68.33000000
O37     48.97000000     42.53000000     68.61000000
C38     49.70000000     40.22000000     68.54000000
C39     50.69000000     40.47000000     69.67000000
C40     49.99000000     40.34000000     71.02000000
C41     49.36000000     38.95000000     71.16000000
C42     48.00000000     39.10000000     71.82000000
C43     47.25000000     37.77000000     71.86000000
C44     45.89000000     37.96000000     72.53000000
C45     45.33000000     36.60000000     72.92000000
C46     44.20000000     36.73000000     73.94000000
C47     44.31000000     35.55000000     74.90000000
C48     45.67000000     35.63000000     75.60000000
C49     45.98000000     34.39000000     76.44000000
C50     47.41000000     34.46000000     76.97000000
C51     47.77000000     33.17000000     77.71000000
C52     46.92000000     33.00000000     78.97000000
 C1     41.85000000     55.81000000     38.34000000
 C2     40.24000000     54.27000000     37.54000000
 C3     41.71000000     53.63000000     39.35000000
 N4     40.97000000     54.71000000     38.73000000
 C5     39.94000000     55.07000000     39.71000000
 C6     39.23000000     56.40000000     39.48000000
OS7     39.93000000     57.40000000     40.18000000
 P8     39.80000000     58.93000000     39.69000000
OM9     39.91000000     58.94000000     41.15000000
OM10     40.88000000     58.54000000     38.76000000
OS11     38.33000000     58.80000000     39.18000000
C12     38.17000000     58.99000000     37.78000000
C13     36.93000000     58.23000000     37.29000000
OS14     37.16000000     57.53000000     36.04000000
C15     37.15000000     56.17000000     36.04000000
O16     37.46000000     55.48000000     37.01000000
C17     37.25000000     55.71000000     34.59000000
C18     38.15000000     54.48000000     34.50000000
C19     38.46000000     54.15000000     33.05000000
C20     37.67000000     52.96000000     32.52000000
C21     38.11000000     52.68000000     31.09000000
C22     37.21000000     51.68000000     30.38000000
C23     37.70000000     51.58000000     28.93000000
C24     36.87000000     50.68000000     28.07000000
C25     37.25000000     50.20000000     26.88000000
C26     36.44000000     49.32000000     25.98000000
C27     36.11000000     50.00000000     24.65000000
C28     35.40000000     51.33000000     24.87000000
C29     34.80000000     51.87000000     23.57000000
C30     33.56000000     51.05000000     23.20000000
C31     32.87000000     51.60000000     21.95000000
C32     31.58000000     50.82000000     21.68000000
C33     30.57000000     51.06000000     22.80000000
C34     35.78000000     59.24000000     37.39000000
OS35     35.74000000     60.30000000     36.42000000
C36     35.59000000     61.54000000     36.95000000
O37     36.05000000     61.82000000     38.05000000
C38     35.33000000     62.58000000     35.87000000
C39     33.86000000     62.67000000     35.46000000
C40     33.49000000     61.60000000     34.44000000
C41     32.01000000     61.64000000     34.07000000
C42     31.72000000     60.53000000     33.05000000
C43     30.22000000     60.26000000     32.91000000
C44     30.00000000     59.01000000     32.06000000
C45     30.36000000     59.28000000     30.60000000
C46     30.16000000     58.04000000     29.74000000
C47     29.81000000     58.49000000     28.32000000
C48     28.47000000     59.23000000     28.41000000
C49     28.03000000     59.87000000     27.09000000
C50     26.73000000     60.64000000     27.34000000
C51     26.27000000     61.39000000     26.10000000
C52     25.00000000     62.18000000     26.40000000
 C1     35.56000000     57.53000000     50.99000000
 C2     34.68000000     55.46000000     51.84000000
 C3     36.40000000     56.60000000     53.01000000
 N4     35.19000000     56.78000000     52.20000000
 C5     34.12000000     57.47000000     52.96000000
 C6     34.47000000     58.68000000     53.86000000
OS7     35.30000000     59.61000000     53.19000000
 P8     34.56000000     60.77000000     52.38000000
OM9     34.80000000     61.94000000     53.22000000
OM10     35.24000000     60.46000000     51.12000000
OS11     33.07000000     60.24000000     52.35000000
C12     32.09000000     61.26000000     52.13000000
C13     30.66000000     60.82000000     52.48000000
OS14     29.66000000     61.58000000     51.77000000
C15     29.01000000     60.82000000     50.85000000
O16     29.22000000     59.60000000     50.80000000
C17     27.99000000     61.62000000     50.04000000
C18     28.56000000     62.64000000     49.05000000
C19     27.49000000     63.24000000     48.12000000
C20     27.09000000     62.29000000     46.99000000
C21     25.83000000     62.72000000     46.22000000
C22     25.30000000     61.59000000     45.33000000
C23     24.03000000     61.98000000     44.57000000
C24     23.47000000     60.87000000     43.72000000
C25     22.17000000     60.53000000     43.59000000
C26     21.63000000     59.41000000     42.76000000
C27     20.44000000     59.82000000     41.88000000
C28     19.10000000     59.91000000     42.61000000
C29     18.41000000     58.54000000     42.71000000
C30     16.89000000     58.71000000     42.81000000
C31     16.15000000     57.37000000     42.64000000
C32     15.94000000     56.63000000     43.96000000
C33     14.75000000     57.22000000     44.73000000
C34     30.57000000     60.78000000     54.02000000
OS35     29.30000000     60.50000000     54.64000000
C36     29.27000000     60.71000000     55.98000000
O37     30.24000000     60.48000000     56.69000000
C38     27.87000000     60.84000000     56.55000000
C39     27.10000000     62.03000000     55.97000000
C40     26.24000000     61.60000000     54.78000000
C41     24.80000000     61.39000000     55.22000000
C42     24.00000000     60.66000000     54.15000000
C43     22.52000000     60.58000000     54.53000000
C44     21.85000000     61.81000000     53.95000000