6100
Energy = -97003.55402299 au
 C1     56.04000000     43.78000000     60.51000000
 C2     55.84000000     42.65000000     58.42000000
 C3     57.75000000     43.99000000     58.80000000
 N4     56.78000000     43.10000000     59.44000000
 C5     57.44000000     41.89000000     59.98000000
 C6     58.65000000     42.01000000     60.92000000
OS7     58.37000000     42.74000000     62.11000000
 P8     59.64000000     42.81000000     63.03000000
OM9     60.64000000     43.34000000     62.09000000
OM10     59.10000000     43.57000000     64.15000000
OS11     59.71000000     41.27000000     63.34000000
C12     59.25000000     40.96000000     64.65000000
C13     57.92000000     40.20000000     64.79000000
OS14     57.54000000     40.10000000     66.19000000
C15     56.23000000     39.87000000     66.46000000
O16     55.33000000     40.53000000     65.92000000
C17     56.15000000     39.30000000     67.86000000
C18     54.95000000     38.37000000     68.06000000
C19     54.90000000     37.86000000     69.50000000
C20     53.71000000     36.94000000     69.73000000
C21     52.38000000     37.69000000     69.74000000
C22     51.22000000     36.69000000     69.81000000
C23     51.34000000     35.84000000     71.08000000
C24     50.29000000     34.78000000     71.18000000
C25     50.44000000     33.51000000     70.80000000
C26     49.43000000     32.40000000     70.91000000
C27     49.78000000     31.49000000     72.09000000
C28     51.11000000     30.77000000     71.86000000
C29     51.60000000     30.11000000     73.15000000
C30     50.65000000     29.00000000     73.61000000
C31     51.14000000     28.40000000     74.93000000
C32     50.20000000     27.30000000     75.43000000
C33     50.24000000     26.08000000     74.51000000
C34     58.13000000     38.86000000     64.05000000
OS35     57.29000000     37.76000000     64.45000000
C36     57.65000000     36.52000000     64.01000000
O37     58.51000000     36.31000000     63.15000000
C38     56.76000000     35.47000000     64.65000000
C39     57.25000000     35.15000000     66.06000000
C40     58.51000000     34.29000000     66.00000000
C41     59.12000000     34.07000000     67.38000000
C42     60.27000000     33.06000000     67.27000000
C43     61.07000000     32.98000000     68.57000000
C44     60.26000000     32.42000000     69.73000000
C45     61.16000000     32.31000000     70.96000000
C46     60.40000000     31.81000000     72.19000000
C47     61.37000000     31.67000000     73.37000000
C48     61.91000000     33.04000000     73.78000000
C49     62.97000000     32.90000000     74.88000000
C50     64.23000000     32.23000000     74.32000000
C51     65.29000000     32.08000000     75.42000000
C52     65.80000000     33.45000000     75.88000000
 C1     36.72000000     51.27000000     41.70000000
 C2     36.30000000     52.35000000     39.58000000
 C3     38.21000000     52.87000000     40.81000000
 N4     36.80000000     52.53000000     40.95000000
 C5     36.13000000     53.63000000     41.68000000
 C6     34.59000000     53.83000000     41.80000000
OS7     33.80000000     52.83000000     42.46000000
 P8     33.00000000     51.86000000     41.49000000
OM9     33.85000000     50.67000000     41.62000000
OM10     31.60000000     51.67000000     41.83000000
OS11     33.25000000     52.29000000     39.98000000
C12     32.27000000     53.14000000     39.34000000
C13     32.86000000     54.01000000     38.20000000
OS14     31.91000000     54.96000000     37.65000000
C15     32.42000000     56.21000000     37.42000000
O16     33.62000000     56.39000000     37.22000000
C17     31.33000000     57.22000000     37.10000000
C18     31.08000000     58.10000000     38.32000000
C19     30.56000000     59.49000000     37.95000000
C20     31.64000000     60.29000000     37.22000000
C21     31.32000000     61.78000000     37.16000000
C22     32.34000000     62.52000000     36.29000000
C23     32.28000000     64.04000000     36.46000000
C24     30.93000000     64.62000000     36.17000000
C25     30.35000000     65.59000000     36.89000000
C26     28.99000000     66.20000000     36.67000000
C27     29.04000000     67.53000000     35.92000000
C28     27.65000000     68.17000000     35.92000000
C29     27.62000000     69.50000000     35.15000000
C30     27.73000000     69.26000000     33.64000000
C31     27.54000000     70.56000000     32.86000000
C32     27.62000000     70.31000000     31.36000000
C33     26.46000000     69.41000000     30.90000000
C34     33.48000000     53.03000000     37.18000000
OS35     34.21000000     53.58000000     36.07000000
C36     33.56000000     53.50000000     34.88000000
O37     33.20000000     52.41000000     34.44000000
C38     33.99000000     54.64000000     33.97000000
C39     33.00000000     54.80000000     32.82000000
C40     31.68000000     55.40000000     33.34000000
C41     30.64000000     55.53000000     32.22000000
C42     31.13000000     56.46000000     31.12000000
C43     30.00000000     56.84000000     30.16000000
C44     29.01000000     57.76000000     30.87000000
C45     27.90000000     58.24000000     29.93000000
C46     26.95000000     59.19000000     30.66000000
C47     25.85000000     59.69000000     29.73000000
C48     24.90000000     58.56000000     29.31000000
C49     23.79000000     59.08000000     28.41000000
C50     24.35000000     59.55000000     27.06000000
C51     23.23000000     60.08000000     26.16000000
C52     22.28000000     58.95000000     25.75000000
 C1     39.06000000     40.24000000     50.75000000
 C2     40.47000000     40.93000000     52.52000000
 C3     39.08000000     42.51000000     51.41000000
 N4     39.16000000     41.14000000     51.91000000
 C5     38.04000000     40.97000000     52.88000000
 C6     37.71000000     39.57000000     53.44000000
OS7     38.73000000     39.03000000     54.27000000
 P8     39.16000000     37.57000000     53.83000000
OM9     39.20000000     37.60000000     52.37000000
OM10     40.38000000     37.29000000     54.60000000
OS11     37.93000000     36.75000000     54.32000000
C12     38.03000000     36.19000000     55.63000000
C13     37.72000000     37.19000000     56.76000000
OS14     38.10000000     36.72000000     58.07000000
C15     38.81000000     37.60000000     58.82000000
O16     39.45000000     38.51000000     58.27000000
C17     39.06000000     37.12000000     60.24000000
C18     39.60000000     38.27000000     61.08000000
C19     40.49000000     37.75000000     62.21000000
C20     39.73000000     37.33000000     63.47000000
C21     40.65000000     36.46000000     64.33000000
C22     40.30000000     36.42000000     65.81000000
C23     41.07000000     35.31000000     66.52000000
C24     40.50000000     33.97000000     66.15000000
C25     41.00000000     32.74000000     66.28000000
C26     40.24000000     31.51000000     65.87000000
C27     39.08000000     31.30000000     66.84000000
C28     37.94000000     30.47000000     66.24000000
C29     36.72000000     30.58000000     67.16000000
C30     35.44000000     30.03000000     66.52000000
C31     34.24000000     30.26000000     67.44000000
C32     32.96000000     29.71000000     66.81000000
C33     33.01000000     28.18000000     66.71000000
C34     36.29000000     37.74000000     56.58000000
OS35     35.14000000     36.87000000     56.57000000
C36     34.47000000     36.64000000     55.41000000
O37     34.68000000     37.26000000     54.36000000
C38     33.20000000     35.86000000     55.72000000
C39     32.91000000     34.75000000     54.72000000
C40     33.65000000     33.44000000     55.02000000
C41     32.65000000     32.32000000     55.34000000
C42     32.00000000     32.52000000     56.72000000
C43     30.85000000     31.56000000     56.98000000
C44     29.69000000     31.85000000     56.02000000
C45     28.37000000     31.30000000     56.56000000
C46     28.32000000     29.77000000     56.60000000
C47     27.05000000     29.34000000     57.33000000
C48     25.80000000     29.81000000     56.59000000
C49     24.53000000     29.52000000     57.39000000
C50     24.50000000     30.38000000     58.66000000
C51     23.21000000     30.13000000     59.46000000
C52     21.99000000     30.63000000     58.69000000
 C1     59.40000000     46.36000000     61.52000000
 C2     60.46000000     47.92000000     60.01000000
 C3     60.82000000     45.55000000     59.85000000
 N4     60.62000000     46.67000000     60.76000000
 C5     61.79000000     46.64000000     61.67000000
 C6     62.07000000     47.91000000     62.49000000
OS7     61.02000000     48.42000000     63.31000000
 P8     60.84000000     47.76000000     64.74000000
OM9     60.05000000     48.76000000     65.47000000
OM10     60.23000000     46.47000000     64.42000000
OS11     62.34000000     47.63000000     65.17000000
C12     62.72000000     46.32000000     65.60000000
C13     64.08000000     45.89000000     65.04000000
OS14     64.29000000     44.46000000     65.17000000
C15     64.35000000     43.74000000     64.02000000
O16     64.07000000     44.20000000     62.91000000
C17     64.45000000     42.27000000     64.38000000
C18     63.04000000     41.69000000     64.43000000
C19     62.91000000     40.45000000     65.32000000
C20     62.78000000     40.81000000     66.80000000
C21     62.33000000     39.58000000     67.59000000
C22     63.35000000     38.46000000     67.43000000
C23     62.99000000     37.15000000     68.13000000
C24     64.05000000     36.14000000     67.81000000
C25     63.94000000     35.08000000     67.01000000
C26     65.03000000     34.11000000     66.65000000
C27     64.99000000     32.74000000     67.34000000
C28     65.27000000     32.83000000     68.84000000
C29     65.79000000     31.49000000     69.36000000
C30     67.16000000     31.21000000     68.74000000
C31     67.75000000     29.88000000     69.21000000
C32     69.11000000     29.65000000     68.56000000
C33     69.72000000     28.32000000     69.02000000
C34     65.15000000     46.83000000     65.62000000
OS35     65.19000000     46.88000000     67.05000000
C36     65.97000000     47.87000000     67.57000000
O37     66.53000000     48.73000000     66.89000000
C38     66.04000000     47.77000000     69.08000000
C39     67.21000000     46.87000000     69.51000000
C40     66.94000000     45.41000000     69.16000000
C41     68.16000000     44.52000000     69.43000000
C42     67.95000000     43.13000000     68.84000000
C43     69.18000000     42.26000000     69.14000000
C44     69.24000000     41.97000000     70.64000000
C45     70.59000000     41.38000000     71.04000000
C46     70.63000000     41.12000000     72.54000000
C47     72.06000000     40.83000000     73.01000000
C48     72.91000000     42.09000000     72.88000000
C49     74.33000000     41.86000000     73.38000000
C50     75.07000000     40.86000000     72.50000000
C51     76.52000000     40.68000000     72.97000000
C52     77.33000000     41.95000000     72.74000000
 C1     58.72000000     41.28000000     55.12000000
 C2     59.57000000     39.50000000     53.81000000
 C3     60.88000000     41.46000000     54.13000000
 N4     59.93000000     40.54000000     54.77000000
 C5     60.53000000     39.87000000     55.95000000
 C6     60.98000000     40.70000000     57.17000000
OS7     62.00000000     41.67000000     56.91000000
 P8     62.02000000     42.83000000     57.96000000
OM9     62.49000000     44.03000000     57.24000000
OM10     60.69000000     42.88000000     58.59000000
OS11     63.19000000     42.39000000     58.90000000
C12     62.85000000     41.85000000     60.18000000
C13     63.36000000     40.40000000     60.32000000
OS14     62.74000000     39.63000000     61.38000000
C15     61.57000000     39.01000000     61.07000000
O16     61.08000000     39.05000000     59.94000000
C17     61.15000000     38.04000000     62.16000000
C18     62.36000000     37.59000000     62.98000000
C19     62.06000000     36.36000000     63.83000000
C20     62.09000000     35.10000000     62.97000000
C21     62.10000000     33.83000000     63.82000000
C22     62.46000000     32.61000000     62.97000000
C23     62.68000000     31.37000000     63.84000000
C24     63.15000000     30.21000000     63.02000000
C25     62.70000000     28.95000000     63.07000000
C26     63.17000000     27.81000000     62.22000000
C27     63.75000000     26.65000000     63.04000000
C28     65.03000000     27.04000000     63.76000000
C29     65.61000000     25.85000000     64.53000000
C30     66.07000000     24.76000000     63.56000000
C31     66.66000000     23.57000000     64.32000000
C32     67.14000000     22.49000000     63.35000000
C33     67.74000000     21.31000000     64.11000000
C34     64.90000000     40.41000000     60.36000000
OS35     65.47000000     39.55000000     59.35000000
C36     66.70000000     39.04000000     59.61000000
O37     67.31000000     39.19000000     60.67000000
C38     67.19000000     38.21000000     58.43000000
C39     68.65000000     37.79000000     58.58000000
C40     69.24000000     37.44000000     57.21000000
C41     70.63000000     36.80000000     57.36000000
C42     70.46000000     35.33000000     57.75000000
C43     71.78000000     34.68000000     58.18000000
C44     72.24000000     35.28000000     59.51000000
C45     73.29000000     34.38000000     60.17000000
C46     72.65000000     33.06000000     60.62000000
C47     73.67000000     32.18000000     61.35000000
C48     74.12000000     32.85000000     62.65000000
C49     75.16000000     31.98000000     63.37000000
C50     76.43000000     31.85000000     62.54000000
C51     77.51000000     31.07000000     63.29000000
C52     78.02000000     31.86000000     64.49000000
 C1     44.56000000     39.37000000     41.82000000
 C2     43.69000000     41.59000000     41.46000000
 C3     46.05000000     41.05000000     41.29000000
 N4     44.69000000     40.59000000     41.04000000
 C5     44.45000000     40.22000000     39.63000000
 C6     44.67000000     41.28000000     38.52000000
OS7     45.98000000     41.82000000     38.33000000
 P8     47.05000000     40.89000000     37.60000000
OM9     48.20000000     41.79000000     37.54000000
OM10     47.10000000     39.65000000     38.38000000
OS11     46.40000000     40.73000000     36.18000000
C12     46.02000000     39.38000000     35.92000000
C13     44.70000000     39.28000000     35.15000000
OS14     43.96000000     38.07000000     35.43000000
C15     42.99000000     38.17000000     36.37000000
O16     42.81000000     39.20000000     37.02000000
C17     42.25000000     36.85000000     36.54000000
C18     42.46000000     36.28000000     37.94000000
C19     42.13000000     34.78000000     37.94000000
C20     40.63000000     34.53000000     37.77000000
C21     40.38000000     33.03000000     37.56000000
C22     40.86000000     32.61000000     36.17000000
C23     40.76000000     31.09000000     35.98000000
C24     39.36000000     30.60000000     36.15000000
C25     38.69000000     29.72000000     35.39000000
C26     37.28000000     29.28000000     35.67000000
C27     36.98000000     27.82000000     35.32000000
C28     37.87000000     26.84000000     36.10000000
C29     37.30000000     25.43000000     35.96000000
C30     37.16000000     25.04000000     34.49000000
C31     36.52000000     23.67000000     34.34000000
C32     36.22000000     23.36000000     32.87000000
C33     37.52000000     23.25000000     32.06000000
C34     45.05000000     39.57000000     33.68000000
OS35     43.90000000     39.74000000     32.83000000
C36     43.51000000     38.59000000     32.22000000
O37     44.32000000     37.80000000     31.74000000
C38     42.07000000     38.73000000     31.76000000
C39     41.68000000     37.72000000     30.68000000
C40     41.36000000     36.34000000     31.27000000
C41     40.08000000     36.37000000     32.10000000
C42     39.67000000     34.94000000     32.47000000
C43     38.34000000     34.86000000     33.22000000
C44     37.91000000     33.40000000     33.22000000
C45     37.72000000     32.97000000     31.77000000
C46     37.67000000     31.45000000     31.57000000
C47     37.61000000     31.17000000     30.07000000
C48     38.86000000     31.72000000     29.38000000
C49     38.74000000     31.64000000     27.86000000
C50     37.61000000     32.54000000     27.36000000
C51     37.55000000     32.57000000     25.83000000
C52     38.74000000     33.33000000     25.24000000
 C1     43.62000000     59.16000000     42.77000000
 C2     41.37000000     59.64000000     42.31000000
 C3     41.95000000     58.59000000     44.36000000
 N4     42.36000000     59.60000000     43.39000000
 C5     42.43000000     60.97000000     43.94000000
 C6     43.16000000     61.25000000     45.29000000
OS7     44.57000000     61.03000000     45.44000000
 P8     45.52000000     62.06000000     44.66000000
OM9     46.75000000     61.98000000     45.45000000
OM10     45.44000000     61.42000000     43.36000000
OS11     44.72000000     63.40000000     44.84000000
C12     44.78000000     64.18000000     43.65000000
C13     43.55000000     65.04000000     43.33000000
OS14     43.67000000     65.56000000     41.98000000
C15     42.95000000     64.92000000     41.02000000
O16     42.24000000     63.92000000     41.23000000
C17     43.24000000     65.50000000     39.65000000
C18     41.97000000     65.57000000     38.81000000
C19     42.33000000     65.63000000     37.33000000
C20     41.09000000     65.51000000     36.45000000
C21     41.47000000     65.14000000     35.01000000
C22     40.21000000     64.80000000     34.21000000
C23     40.55000000     64.31000000     32.80000000
C24     39.31000000     63.87000000     32.08000000
C25     38.06000000     63.93000000     32.58000000
C26     36.81000000     63.49000000     31.87000000
C27     36.29000000     64.57000000     30.92000000
C28     35.80000000     65.80000000     31.68000000
C29     35.48000000     66.93000000     30.70000000
C30     34.33000000     66.56000000     29.77000000
C31     34.13000000     67.65000000     28.71000000
C32     32.98000000     67.30000000     27.76000000
C33     31.63000000     67.38000000     28.47000000
C34     43.38000000     66.12000000     44.41000000
OS35     42.17000000     66.88000000     44.19000000
C36     42.00000000     68.11000000     44.74000000
O37     42.33000000     68.42000000     45.88000000
C38     40.81000000     68.71000000     44.01000000
C39     40.75000000     70.24000000     43.97000000
C40     39.60000000     70.63000000     43.05000000
C41     38.28000000     70.09000000     43.60000000
C42     37.28000000     69.87000000     42.47000000
C43     36.81000000     71.19000000     41.84000000
C44     36.10000000     70.89000000     40.52000000
C45     35.49000000     72.16000000     39.91000000
C46     35.02000000     71.87000000     38.49000000
C47     34.24000000     73.06000000     37.92000000
C48     35.09000000     74.32000000     37.86000000
C49     34.28000000     75.48000000     37.29000000
C50     33.10000000     75.83000000     38.20000000
C51     32.27000000     76.97000000     37.59000000
C52     33.06000000     78.27000000     37.57000000
 C1     30.86000000     50.98000000     51.80000000
 C2     29.63000000     49.27000000     50.66000000
 C3     28.97000000     49.96000000     52.83000000
 N4     29.53000000     50.42000000     51.56000000
 C5     28.57000000     51.43000000     51.04000000
 C6     28.96000000     52.23000000     49.78000000
OS7     29.06000000     51.44000000     48.60000000
 P8     29.43000000     52.30000000     47.34000000
OM9     30.61000000     53.06000000     47.77000000
OM10     29.49000000     51.35000000     46.22000000
OS11     28.14000000     53.20000000     47.28000000
C12     27.00000000     52.77000000     46.52000000
C13     26.13000000     51.64000000     47.10000000
OS14     25.06000000     51.19000000     46.23000000
C15     25.22000000     49.95000000     45.69000000
O16     26.34000000     49.48000000     45.48000000
C17     23.92000000     49.42000000     45.12000000
C18     22.84000000     49.45000000     46.19000000
C19     23.15000000     48.42000000     47.28000000
C20     22.89000000     46.99000000     46.80000000
C21     21.39000000     46.72000000     46.70000000
C22     21.13000000     45.27000000     46.29000000
C23     19.63000000     45.02000000     46.13000000
C24     19.33000000     43.60000000     45.76000000
C25     19.48000000     43.07000000     44.54000000
C26     19.14000000     41.66000000     44.16000000
C27     18.39000000     41.62000000     42.82000000
C28     17.16000000     42.53000000     42.87000000
C29     16.40000000     42.55000000     41.55000000
C30     15.55000000     41.29000000     41.38000000
C31     14.75000000     41.35000000     40.08000000
C32     13.77000000     40.18000000     39.99000000
C33     12.66000000     40.32000000     41.05000000
C34     25.64000000     52.05000000     48.50000000
OS35     24.91000000     53.28000000     48.64000000
C36     24.86000000     53.78000000     49.90000000
O37     25.73000000     53.54000000     50.75000000
C38     23.84000000     54.90000000     49.97000000
C39     23.05000000     54.84000000     51.28000000
C40     21.80000000     55.71000000     51.24000000
C41     20.79000000     55.16000000     50.23000000
C42     19.38000000     55.67000000     50.49000000
C43     18.39000000     54.95000000     49.56000000
C44     16.95000000     55.13000000     50.02000000
C45     16.00000000     54.29000000     49.16000000
C46     14.58000000     54.32000000     49.71000000
C47     14.51000000     53.62000000     51.07000000
C48     13.09000000     53.63000000     51.64000000
C49     12.16000000     52.69000000     50.88000000
C50     12.54000000     51.22000000     51.12000000
C51     11.58000000     50.27000000     50.39000000
C52     10.19000000     50.32000000     51.01000000
 C1     62.10000000     43.55000000     46.00000000
 C2     63.79000000     42.48000000     47.29000000
 C3     61.57000000     41.73000000     47.55000000
 N4     62.52000000     42.28000000     46.58000000
 C5     62.79000000     41.35000000     45.46000000
 C6     61.63000000     40.50000000     44.91000000
OS7     60.41000000     41.11000000     44.47000000
 P8     60.33000000     41.24000000     42.91000000
OM9     58.92000000     41.62000000     42.71000000
OM10     61.37000000     42.21000000     42.58000000
OS11     60.56000000     39.77000000     42.37000000
C12     61.77000000     39.57000000     41.62000000
C13     62.52000000     38.28000000     42.01000000
OS14     63.95000000     38.32000000     41.77000000
C15     64.68000000     38.50000000     42.90000000
O16     64.26000000     39.18000000     43.83000000
C17     66.12000000     38.05000000     42.72000000
C18     66.85000000     38.02000000     44.06000000
C19     68.14000000     37.21000000     43.96000000
C20     68.94000000     37.23000000     45.26000000
C21     70.08000000     36.21000000     45.22000000
C22     70.89000000     36.26000000     46.51000000
C23     71.97000000     35.19000000     46.63000000
C24     72.76000000     35.36000000     47.89000000
C25     73.97000000     35.92000000     48.01000000
C26     74.74000000     36.12000000     49.28000000
C27     76.25000000     35.92000000     49.11000000
C28     76.59000000     34.46000000     48.83000000
C29     78.07000000     34.28000000     48.50000000
C30     78.96000000     34.60000000     49.70000000
C31     80.43000000     34.42000000     49.34000000
C32     81.33000000     34.76000000     50.53000000
C33     81.13000000     33.76000000     51.67000000
C34     61.79000000     37.09000000     41.36000000
OS35     62.22000000     35.79000000     41.81000000
C36     62.10000000     34.80000000     40.89000000
O37     61.37000000     34.92000000     39.90000000
C38     62.61000000     33.46000000     41.40000000
C39     64.09000000     33.18000000     41.12000000
C40     65.01000000     33.85000000     42.14000000
C41     66.32000000     33.07000000     42.26000000
C42     67.17000000     33.60000000     43.42000000
C43     68.36000000     32.66000000     43.68000000
C44     69.32000000     32.64000000     42.50000000
C45     70.36000000     31.53000000     42.69000000
C46     71.30000000     31.45000000     41.48000000
C47     72.21000000     30.23000000     41.59000000
C48     71.42000000     28.93000000     41.42000000
C49     72.33000000     27.71000000     41.52000000
C50     72.88000000     27.55000000     42.94000000
C51     73.79000000     26.32000000     43.04000000
C52     72.99000000     25.03000000     42.83000000
 C1     46.60000000     44.13000000     30.45000000
 C2     44.27000000     44.66000000     30.40000000
 C3     45.67000000     45.69000000     31.98000000
 N4     45.42000000     44.43000000     31.27000000
 C5     45.23000000     43.30000000     32.21000000
 C6     43.95000000     43.19000000     33.08000000
OS7     43.65000000     44.37000000     33.83000000
 P8     42.45000000     44.22000000     34.83000000
OM9     42.93000000     43.50000000     36.00000000
OM10     41.96000000     45.59000000     35.05000000
OS11     41.36000000     43.38000000     34.05000000
C12     40.34000000     44.13000000     33.39000000
C13     40.63000000     44.66000000     31.98000000
OS14     39.88000000     45.86000000     31.70000000
C15     40.67000000     46.90000000     31.33000000
O16     41.89000000     46.80000000     31.39000000
C17     39.86000000     48.17000000     31.14000000
C18     40.77000000     49.34000000     30.78000000
C19     40.16000000     50.68000000     31.18000000
C20     41.04000000     51.84000000     30.70000000
C21     40.46000000     53.20000000     31.08000000
C22     41.06000000     54.30000000     30.20000000
C23     40.60000000     55.71000000     30.58000000
C24     39.14000000     55.98000000     30.37000000
C25     38.19000000     55.99000000     31.33000000
C26     36.73000000     56.28000000     31.16000000
C27     36.37000000     56.76000000     29.75000000
C28     34.89000000     57.14000000     29.69000000
C29     34.48000000     57.56000000     28.29000000
C30     34.54000000     56.37000000     27.33000000
C31     34.07000000     56.76000000     25.92000000
C32     34.19000000     55.56000000     24.97000000
C33     33.25000000     54.43000000     25.40000000
C34     40.46000000     43.50000000     30.98000000
OS35     41.68000000     42.81000000     30.63000000
C36     41.52000000     41.96000000     29.57000000
O37     40.42000000     41.71000000     29.08000000
C38     42.83000000     41.31000000     29.17000000
C39     42.99000000     41.29000000     27.65000000
C40     43.49000000     42.64000000     27.14000000
C41     43.36000000     42.71000000     25.62000000
C42     44.01000000     43.97000000     25.05000000
C43     43.56000000     44.18000000     23.61000000
C44     42.09000000     44.59000000     23.61000000
C45     41.47000000     44.57000000     22.21000000
C46     40.01000000     45.02000000     22.30000000
C47     39.26000000     44.75000000     21.00000000
C48     39.12000000     43.24000000     20.79000000
C49     38.30000000     42.93000000     19.53000000
C50     38.17000000     41.42000000     19.34000000
C51     37.32000000     41.08000000     18.12000000
C52     35.86000000     41.49000000     18.34000000
 C1     53.07000000     52.79000000     66.40000000
 C2     51.87000000     50.90000000     65.68000000
 C3     51.15000000     53.06000000     64.98000000
 N4     52.33000000     52.23000000     65.26000000
 C5     53.20000000     52.06000000     64.08000000
 C6     53.74000000     53.35000000     63.40000000
OS7     54.76000000     53.19000000     62.41000000
 P8     55.27000000     54.62000000     61.97000000
OM9     56.28000000     54.39000000     60.92000000
OM10     54.06000000     55.36000000     61.64000000
OS11     56.02000000     55.11000000     63.25000000
C12     55.60000000     56.39000000     63.75000000
C13     55.38000000     56.39000000     65.27000000
OS14     54.33000000     57.25000000     65.78000000
C15     53.14000000     56.65000000     66.04000000
O16     52.71000000     55.72000000     65.35000000
C17     52.30000000     57.43000000     67.04000000
C18     51.65000000     56.43000000     68.00000000
C19     50.99000000     57.10000000     69.21000000
C20     50.58000000     56.02000000     70.21000000
C21     50.01000000     56.56000000     71.52000000
C22     49.73000000     55.39000000     72.47000000
C23     48.65000000     54.50000000     71.87000000
C24     48.48000000     53.17000000     72.55000000
C25     47.30000000     52.58000000     72.82000000
C26     47.07000000     51.24000000     73.46000000
C27     46.58000000     51.30000000     74.91000000
C28     47.66000000     51.82000000     75.87000000
C29     47.10000000     51.98000000     77.28000000
C30     46.84000000     50.63000000     77.96000000
C31     46.13000000     50.85000000     79.29000000
C32     46.03000000     49.55000000     80.09000000
C33     47.41000000     49.14000000     80.61000000
C34     56.76000000     56.51000000     65.95000000
OS35     57.56000000     55.31000000     65.99000000
C36     57.17000000     54.27000000     66.79000000
O37     56.10000000     53.67000000     66.65000000
C38     58.44000000     53.55000000     67.21000000
C39     58.67000000     53.68000000     68.72000000
C40     57.85000000     52.67000000     69.51000000
C41     58.15000000     52.77000000     71.00000000
C42     57.60000000     51.55000000     71.74000000
C43     57.85000000     51.65000000     73.25000000
C44     56.90000000     52.66000000     73.89000000