6100
Energy = -96767.16308804 au
 C1     42.87000000     38.51000000     50.78000000
 C2     42.25000000     36.67000000     52.15000000
 C3     40.84000000     37.35000000     50.39000000
 N4     42.24000000     37.20000000     50.79000000
 C5     42.96000000     36.23000000     49.92000000
 C6     43.24000000     36.57000000     48.44000000
OS7     42.10000000     36.92000000     47.66000000
 P8     42.05000000     36.07000000     46.32000000
OM9     40.84000000     36.62000000     45.69000000
OM10     43.38000000     36.32000000     45.76000000
OS11     41.77000000     34.67000000     46.97000000
C12     40.39000000     34.38000000     47.24000000
C13     40.01000000     34.13000000     48.72000000
OS14     40.65000000     32.96000000     49.31000000
C15     41.10000000     33.05000000     50.60000000
O16     41.02000000     34.09000000     51.26000000
C17     41.74000000     31.76000000     51.07000000
C18     42.20000000     31.80000000     52.52000000
C19     42.94000000     30.50000000     52.83000000
C20     42.00000000     29.31000000     52.65000000
C21     42.73000000     28.09000000     52.09000000
C22     43.65000000     27.40000000     53.10000000
C23     44.43000000     26.29000000     52.39000000
C24     45.18000000     25.40000000     53.34000000
C25     45.14000000     25.45000000     54.68000000
C26     45.86000000     24.58000000     55.67000000
C27     46.57000000     23.35000000     55.07000000
C28     45.60000000     22.21000000     54.73000000
C29     46.35000000     21.00000000     54.18000000
C30     47.20000000     20.34000000     55.27000000
C31     47.91000000     19.10000000     54.74000000
C32     48.72000000     18.42000000     55.85000000
C33     47.79000000     17.83000000     56.91000000
C34     38.47000000     34.15000000     48.75000000
OS35     37.78000000     33.78000000     49.96000000
C36     37.86000000     34.58000000     51.07000000
O37     38.23000000     35.75000000     51.05000000
C38     37.19000000     33.94000000     52.27000000
C39     36.62000000     32.54000000     52.05000000
C40     37.65000000     31.44000000     52.28000000
C41     36.94000000     30.09000000     52.26000000
C42     35.94000000     30.01000000     53.41000000
C43     35.19000000     28.67000000     53.40000000
C44     36.16000000     27.52000000     53.66000000
C45     35.41000000     26.20000000     53.78000000
C46     36.37000000     25.04000000     54.02000000
C47     35.59000000     23.74000000     54.23000000
C48     34.83000000     23.35000000     52.96000000
C49     33.98000000     22.10000000     53.20000000
C50     32.86000000     22.39000000     54.21000000
C51     32.01000000     21.14000000     54.46000000
C52     31.22000000     20.76000000     53.20000000
 C1     45.08000000     58.31000000     58.49000000
 C2     43.28000000     57.48000000     59.78000000
 C3     44.85000000     55.96000000     58.82000000
 N4     44.69000000     57.27000000     59.45000000
 C5     45.45000000     57.38000000     60.72000000
 C6     46.98000000     57.17000000     60.70000000
OS7     47.81000000     58.10000000     60.01000000
 P8     47.96000000     59.52000000     60.70000000
OM9     49.30000000     59.97000000     60.35000000
OM10     46.78000000     60.23000000     60.19000000
OS11     47.85000000     59.24000000     62.23000000
C12     47.39000000     60.41000000     62.89000000
C13     46.95000000     60.18000000     64.34000000
OS14     46.06000000     61.24000000     64.79000000
C15     44.77000000     60.86000000     65.03000000
O16     44.33000000     59.78000000     64.63000000
C17     43.95000000     62.06000000     65.46000000
C18     43.85000000     63.09000000     64.33000000
C19     43.28000000     64.43000000     64.82000000
C20     41.79000000     64.35000000     65.16000000
C21     40.91000000     64.31000000     63.91000000
C22     39.44000000     64.16000000     64.29000000
C23     38.55000000     63.94000000     63.06000000
C24     37.16000000     63.56000000     63.47000000
C25     36.00000000     64.07000000     63.02000000
C26     34.65000000     63.63000000     63.51000000
C27     34.27000000     64.41000000     64.77000000
C28     33.01000000     63.87000000     65.44000000
C29     32.75000000     64.64000000     66.74000000
C30     31.71000000     63.95000000     67.62000000
C31     31.55000000     64.73000000     68.93000000
C32     30.66000000     63.98000000     69.92000000
C33     31.36000000     62.72000000     70.43000000
C34     48.23000000     59.85000000     65.13000000
OS35     48.21000000     60.16000000     66.54000000
C36     48.67000000     61.41000000     66.80000000
O37     49.29000000     62.08000000     65.97000000
C38     48.47000000     61.81000000     68.25000000
C39     48.36000000     63.33000000     68.34000000
C40     46.98000000     63.82000000     67.89000000
C41     45.98000000     63.67000000     69.03000000
C42     44.56000000     64.08000000     68.65000000
C43     43.71000000     64.18000000     69.91000000
C44     44.23000000     65.36000000     70.73000000
C45     43.66000000     65.40000000     72.15000000
C46     44.24000000     66.60000000     72.89000000
C47     43.93000000     66.55000000     74.38000000
C48     44.66000000     65.37000000     75.03000000
C49     44.49000000     65.39000000     76.55000000
C50     43.03000000     65.20000000     76.94000000
C51     42.87000000     65.22000000     78.46000000
C52     43.51000000     63.97000000     79.08000000
 C1     51.29000000     37.70000000     52.61000000
 C2     52.23000000     38.50000000     50.57000000
 C3     52.38000000     36.21000000     51.11000000
 N4     51.51000000     37.39000000     51.19000000
 C5     50.25000000     37.07000000     50.48000000
 C6     49.02000000     38.01000000     50.47000000
OS7     48.22000000     37.98000000     51.66000000
 P8     46.66000000     37.80000000     51.39000000
OM9     46.06000000     38.39000000     52.58000000
OM10     46.29000000     38.43000000     50.11000000
OS11     46.35000000     36.26000000     51.47000000
C12     46.74000000     35.43000000     50.36000000
C13     47.63000000     34.24000000     50.78000000
OS14     48.60000000     33.92000000     49.74000000
C15     49.76000000     33.31000000     50.12000000
O16     50.46000000     33.78000000     51.03000000
C17     50.26000000     32.41000000     49.00000000
C18     49.42000000     31.14000000     48.99000000
C19     49.44000000     30.39000000     47.65000000
C20     50.83000000     29.85000000     47.31000000
C21     50.76000000     29.05000000     46.02000000
C22     52.13000000     28.59000000     45.52000000
C23     51.98000000     27.75000000     44.26000000
C24     53.28000000     27.32000000     43.67000000
C25     53.57000000     27.30000000     42.36000000
C26     54.86000000     26.86000000     41.73000000
C27     54.67000000     25.61000000     40.86000000
C28     54.20000000     24.41000000     41.69000000
C29     53.98000000     23.18000000     40.82000000
C30     55.30000000     22.61000000     40.30000000
C31     55.06000000     21.34000000     39.49000000
C32     56.38000000     20.78000000     38.95000000
C33     57.26000000     20.27000000     40.10000000
C34     46.73000000     33.07000000     51.21000000
OS35     47.43000000     32.10000000     52.02000000
C36     46.82000000     30.89000000     52.17000000
O37     46.19000000     30.32000000     51.28000000
C38     47.43000000     30.21000000     53.38000000
C39     47.72000000     28.72000000     53.21000000
C40     48.61000000     28.26000000     54.36000000
C41     48.97000000     26.78000000     54.23000000
C42     50.00000000     26.35000000     55.27000000
C43     50.32000000     24.87000000     55.12000000
C44     50.89000000     24.60000000     53.72000000
C45     51.18000000     23.12000000     53.50000000
C46     51.71000000     22.88000000     52.09000000
C47     52.00000000     21.40000000     51.85000000
C48     50.70000000     20.60000000     51.85000000
C49     50.99000000     19.11000000     51.66000000
C50     51.76000000     18.55000000     52.86000000
C51     52.01000000     17.05000000     52.71000000
C52     50.70000000     16.27000000     52.78000000
 C1     64.48000000     41.24000000     43.17000000
 C2     66.56000000     40.34000000     42.44000000
 C3     66.01000000     42.66000000     42.10000000
 N4     65.48000000     41.30000000     42.11000000
 C5     64.86000000     41.04000000     40.78000000
 C6     64.37000000     39.61000000     40.44000000
OS7     63.45000000     39.04000000     41.37000000
 P8     63.70000000     37.49000000     41.51000000
OM9     62.63000000     37.09000000     42.43000000
OM10     63.80000000     36.88000000     40.19000000
OS11     65.08000000     37.54000000     42.27000000
C12     66.03000000     36.55000000     41.85000000
C13     67.21000000     36.98000000     40.94000000
OS14     66.83000000     37.42000000     39.61000000
C15     67.53000000     38.44000000     39.04000000
O16     68.03000000     39.33000000     39.73000000
C17     67.04000000     38.63000000     37.61000000
C18     67.32000000     40.04000000     37.09000000
C19     68.66000000     40.14000000     36.36000000
C20     68.51000000     39.76000000     34.88000000
C21     69.80000000     40.02000000     34.09000000
C22     70.84000000     38.92000000     34.31000000
C23     72.16000000     39.26000000     33.60000000
C24     72.85000000     40.43000000     34.24000000
C25     74.10000000     40.45000000     34.71000000
C26     74.76000000     41.62000000     35.38000000
C27     75.61000000     42.47000000     34.43000000
C28     76.83000000     41.69000000     33.94000000
C29     77.71000000     42.59000000     33.08000000
C30     78.26000000     43.74000000     33.92000000
C31     79.16000000     44.65000000     33.08000000
C32     79.67000000     45.83000000     33.91000000
C33     80.61000000     45.35000000     35.02000000
C34     68.15000000     35.77000000     40.92000000
OS35     68.92000000     35.63000000     42.13000000
C36     69.83000000     34.62000000     42.12000000
O37     69.98000000     33.82000000     41.19000000
C38     70.70000000     34.68000000     43.36000000
C39     71.34000000     33.33000000     43.69000000
C40     72.51000000     33.53000000     44.65000000
C41     73.71000000     34.12000000     43.90000000
C42     74.86000000     34.47000000     44.84000000
C43     76.14000000     34.70000000     44.04000000
C44     76.05000000     35.91000000     43.11000000
C45     77.20000000     35.87000000     42.11000000
C46     77.18000000     37.05000000     41.14000000
C47     78.16000000     36.78000000     39.99000000
C48     77.61000000     35.67000000     39.09000000
C49     78.64000000     35.19000000     38.07000000
C50     79.77000000     34.43000000     38.76000000
C51     80.76000000     33.85000000     37.74000000
C52     80.10000000     32.75000000     36.91000000
 C1     48.18000000     43.20000000     39.40000000
 C2     46.94000000     42.70000000     41.38000000
 C3     48.53000000     41.17000000     40.47000000
 N4     47.48000000     42.15000000     40.14000000
 C5     46.41000000     41.48000000     39.36000000
 C6     46.62000000     41.17000000     37.85000000
OS7     47.93000000     40.71000000     37.50000000
 P8     48.16000000     39.15000000     37.44000000
OM9     49.54000000     39.06000000     36.99000000
OM10     47.75000000     38.72000000     38.78000000
OS11     47.10000000     38.85000000     36.35000000
C12     47.70000000     38.34000000     35.17000000
C13     46.73000000     37.82000000     34.10000000
OS14     46.35000000     36.42000000     34.20000000
C15     45.41000000     36.03000000     35.10000000
O16     45.36000000     36.43000000     36.27000000
C17     44.80000000     34.71000000     34.65000000
C18     43.28000000     34.83000000     34.73000000
C19     42.57000000     33.48000000     34.58000000
C20     41.13000000     33.66000000     35.07000000
C21     40.49000000     32.35000000     35.51000000
C22     39.79000000     31.62000000     34.36000000
C23     39.07000000     30.40000000     34.95000000
C24     38.17000000     30.82000000     36.07000000
C25     36.85000000     31.00000000     36.01000000
C26     35.95000000     31.43000000     37.13000000
C27     35.10000000     30.28000000     37.67000000
C28     34.26000000     29.67000000     36.55000000
C29     33.24000000     28.66000000     37.10000000
C30     32.08000000     29.39000000     37.76000000
C31     31.23000000     30.12000000     36.71000000
C32     30.07000000     30.88000000     37.36000000
C33     29.21000000     31.56000000     36.31000000
C34     47.42000000     38.11000000     32.75000000
OS35     47.16000000     39.43000000     32.22000000
C36     48.18000000     40.31000000     32.06000000
O37     49.17000000     40.34000000     32.79000000
C38     47.69000000     41.50000000     31.24000000
C39     46.56000000     41.06000000     30.30000000
C40     46.02000000     42.20000000     29.45000000
C41     45.01000000     41.64000000     28.44000000
C42     43.72000000     41.21000000     29.12000000
C43     42.92000000     40.23000000     28.25000000
C44     43.68000000     38.90000000     28.16000000
C45     42.86000000     37.79000000     27.51000000
C46     43.65000000     36.48000000     27.55000000
C47     42.82000000     35.28000000     27.09000000
C48     42.50000000     35.35000000     25.59000000
C49     41.75000000     34.08000000     25.16000000
C50     41.44000000     34.10000000     23.66000000
C51     40.73000000     32.81000000     23.25000000
C52     40.39000000     32.83000000     21.76000000
 C1     45.09000000     44.93000000     38.36000000
 C2     44.11000000     46.57000000     39.76000000
 C3     46.45000000     46.37000000     39.76000000
 N4     45.26000000     46.28000000     38.91000000
 C5     45.29000000     47.24000000     37.78000000
 C6     46.42000000     47.14000000     36.73000000
OS7     47.73000000     47.51000000     37.17000000
 P8     48.93000000     46.50000000     36.91000000
OM9     50.08000000     47.28000000     36.48000000
OM10     49.01000000     45.79000000     38.20000000
OS11     48.46000000     45.46000000     35.86000000
C12     48.65000000     45.80000000     34.49000000
C13     47.51000000     45.27000000     33.60000000
OS14     47.11000000     43.88000000     33.81000000
C15     45.92000000     43.70000000     34.47000000
O16     45.50000000     44.48000000     35.32000000
C17     45.55000000     42.23000000     34.42000000
C18     44.19000000     41.97000000     33.77000000
C19     44.09000000     40.47000000     33.53000000
C20     42.85000000     40.02000000     32.75000000
C21     43.04000000     38.56000000     32.36000000
C22     41.77000000     37.93000000     31.79000000
C23     42.03000000     36.46000000     31.45000000
C24     40.77000000     35.67000000     31.35000000
C25     40.17000000     35.21000000     30.24000000
C26     38.90000000     34.41000000     30.23000000
C27     39.17000000     32.90000000     30.16000000
C28     39.86000000     32.47000000     28.86000000
C29     38.89000000     31.97000000     27.78000000
C30     38.14000000     33.09000000     27.06000000
C31     37.21000000     32.53000000     25.98000000
C32     36.42000000     33.65000000     25.31000000
C33     37.35000000     34.60000000     24.55000000
C34     47.88000000     45.63000000     32.16000000
OS35     47.45000000     46.96000000     31.83000000
C36     47.82000000     47.35000000     30.58000000
O37     48.68000000     46.78000000     29.90000000
C38     47.05000000     48.59000000     30.17000000
C39     46.34000000     48.31000000     28.84000000
C40     45.31000000     47.20000000     29.02000000
C41     44.76000000     46.75000000     27.66000000
C42     43.86000000     45.53000000     27.82000000
C43     43.37000000     45.05000000     26.46000000
C44     44.57000000     44.64000000     25.59000000
C45     44.12000000     44.19000000     24.20000000
C46     45.33000000     43.91000000     23.32000000
C47     44.89000000     43.48000000     21.92000000
C48     46.10000000     43.28000000     21.01000000
C49     45.66000000     42.82000000     19.62000000
C50     44.87000000     43.92000000     18.91000000
C51     44.42000000     43.46000000     17.52000000
C52     45.62000000     43.26000000     16.60000000
 C1     48.07000000     55.34000000     40.18000000
 C2     49.27000000     57.12000000     39.13000000
 C3     49.41000000     56.72000000     41.49000000
 N4     48.52000000     56.72000000     40.33000000
 C5     47.38000000     57.63000000     40.57000000
 C6     47.61000000     59.15000000     40.74000000
OS7     48.37000000     59.58000000     41.87000000
 P8     49.66000000     60.43000000     41.51000000
OM9     50.07000000     60.81000000     42.87000000
OM10     50.48000000     59.49000000     40.74000000
OS11     49.15000000     61.68000000     40.69000000
C12     49.50000000     61.70000000     39.30000000
C13     48.27000000     61.62000000     38.37000000
OS14     48.54000000     61.05000000     37.06000000
C15     47.80000000     59.95000000     36.76000000
O16     47.42000000     59.16000000     37.63000000
C17     47.85000000     59.61000000     35.28000000
C18     49.23000000     59.88000000     34.67000000
C19     49.32000000     59.32000000     33.25000000
C20     48.30000000     59.96000000     32.30000000
C21     48.34000000     59.25000000     30.95000000
C22     47.09000000     59.57000000     30.14000000
C23     47.02000000     58.72000000     28.87000000
C24     45.69000000     58.87000000     28.19000000
C25     44.98000000     57.88000000     27.63000000
C26     43.64000000     58.01000000     26.96000000
C27     43.67000000     57.80000000     25.45000000
C28     44.40000000     58.93000000     24.72000000
C29     44.27000000     58.79000000     23.21000000
C30     42.81000000     58.99000000     22.79000000
C31     42.65000000     58.91000000     21.27000000
C32     41.19000000     59.09000000     20.87000000
C33     40.69000000     60.49000000     21.21000000
C34     47.56000000     62.98000000     38.40000000
OS35     46.22000000     62.94000000     37.88000000
C36     45.63000000     64.14000000     37.63000000
O37     46.06000000     65.21000000     38.06000000
C38     44.21000000     63.91000000     37.14000000
C39     43.93000000     64.62000000     35.82000000
C40     44.53000000     63.86000000     34.63000000
C41     44.03000000     64.48000000     33.32000000
C42     44.62000000     63.77000000     32.10000000
C43     44.05000000     64.39000000     30.82000000
C44     44.43000000     65.87000000     30.74000000
C45     43.79000000     66.56000000     29.53000000
C46     44.44000000     66.12000000     28.22000000
C47     43.77000000     66.83000000     27.04000000
C48     43.96000000     68.34000000     27.17000000
C49     43.25000000     69.09000000     26.03000000
C50     43.42000000     70.60000000     26.21000000
C51     42.74000000     71.37000000     25.08000000
C52     42.92000000     72.88000000     25.26000000
 C1     69.07000000     49.26000000     46.66000000
 C2     66.79000000     49.08000000     47.36000000
 C3     68.49000000     49.87000000     48.85000000
 N4     68.18000000     48.91000000     47.79000000
 C5     68.55000000     47.54000000     48.20000000
 C6     67.89000000     46.32000000     47.49000000
OS7     67.82000000     46.37000000     46.06000000
 P8     68.99000000     45.58000000     45.36000000
OM9     68.79000000     45.69000000     43.91000000
OM10     68.98000000     44.24000000     45.95000000
OS11     70.22000000     46.44000000     45.80000000
C12     71.44000000     46.26000000     45.09000000
C13     72.63000000     45.77000000     45.95000000
OS14     73.90000000     45.98000000     45.28000000
C15     74.89000000     46.50000000     46.07000000
O16     74.66000000     47.02000000     47.16000000
C17     76.20000000     46.63000000     45.29000000
C18     77.41000000     46.63000000     46.22000000
C19     78.67000000     47.16000000     45.53000000
C20     78.56000000     48.67000000     45.28000000
C21     79.81000000     49.24000000     44.61000000
C22     80.96000000     49.41000000     45.61000000
C23     80.72000000     50.60000000     46.54000000
C24     80.80000000     51.92000000     45.83000000
C25     81.50000000     52.99000000     46.24000000
C26     81.59000000     54.31000000     45.54000000
C27     83.01000000     54.88000000     45.54000000
C28     83.46000000     55.21000000     46.96000000
C29     84.87000000     55.81000000     46.99000000
C30     85.92000000     54.78000000     46.59000000
C31     87.33000000     55.35000000     46.74000000
C32     88.39000000     54.30000000     46.39000000
C33     89.80000000     54.85000000     46.60000000
C34     72.28000000     44.30000000     46.27000000
OS35     73.13000000     43.46000000     47.07000000
C36     73.99000000     42.66000000     46.39000000
O37     73.89000000     42.45000000     45.18000000
C38     74.70000000     41.73000000     47.36000000
C39     76.21000000     41.67000000     47.13000000
C40     76.89000000     42.87000000     47.78000000
C41     78.41000000     42.75000000     47.65000000
C42     79.10000000     43.82000000     48.50000000
C43     80.62000000     43.69000000     48.44000000
C44     81.16000000     44.13000000     47.08000000
C45     82.68000000     44.04000000     47.07000000
C46     83.27000000     44.52000000     45.74000000
C47     84.79000000     44.36000000     45.77000000
C48     85.17000000     42.88000000     45.83000000
C49     86.68000000     42.70000000     45.99000000
C50     87.14000000     43.19000000     47.37000000
C51     88.64000000     42.96000000     47.56000000
C52     88.95000000     41.46000000     47.63000000
 C1     30.63000000     53.27000000     42.90000000
 C2     28.88000000     51.86000000     42.32000000
 C3     30.73000000     50.88000000     43.36000000
 N4     29.89000000     52.08000000     43.35000000
 C5     29.20000000     52.31000000     44.63000000
 C6     29.94000000     52.33000000     45.99000000
OS7     31.01000000     53.27000000     46.17000000
 P8     30.69000000     54.81000000     46.32000000
OM9     31.50000000     55.29000000     47.45000000
OM10     30.93000000     55.37000000     44.99000000
OS11     29.15000000     54.91000000     46.70000000
C12     28.47000000     55.84000000     45.84000000
C13     27.01000000     55.52000000     45.46000000
OS14     26.62000000     56.17000000     44.21000000
C15     26.85000000     55.45000000     43.08000000
O16     27.56000000     54.45000000     43.08000000
C17     26.37000000     56.14000000     41.82000000
C18     27.24000000     55.71000000     40.63000000
C19     26.84000000     56.44000000     39.35000000
C20     25.51000000     55.93000000     38.79000000
C21     25.65000000     54.49000000     38.27000000
C22     24.37000000     54.04000000     37.55000000
C23     24.56000000     52.64000000     36.98000000
C24     23.43000000     52.21000000     36.09000000
C25     23.39000000     52.42000000     34.77000000
C26     22.31000000     52.01000000     33.81000000
C27     21.52000000     53.19000000     33.24000000
C28     20.66000000     53.87000000     34.31000000
C29     19.81000000     54.98000000     33.69000000
C30     18.80000000     54.40000000     32.70000000
C31     17.94000000     55.50000000     32.08000000
C32     16.91000000     54.90000000     31.12000000
C33     15.89000000     54.06000000     31.87000000
C34     26.15000000     55.85000000     46.70000000
OS35     24.76000000     55.50000000     46.67000000
C36     24.41000000     54.21000000     46.95000000
O37     25.21000000     53.37000000     47.37000000
C38     22.90000000     54.05000000     46.91000000
C39     22.42000000     52.77000000     47.59000000
C40     22.22000000     51.61000000     46.61000000
C41     20.85000000     51.68000000     45.94000000
C42     20.63000000     50.52000000     44.97000000
C43     19.22000000     50.60000000     44.38000000
C44     19.06000000     51.92000000     43.62000000
C45     17.59000000     52.17000000     43.27000000
C46     17.41000000     53.59000000     42.74000000
C47     15.93000000     53.95000000     42.65000000
C48     15.74000000     55.42000000     42.27000000
C49     14.26000000     55.81000000     42.36000000
C50     13.77000000     55.72000000     43.81000000
C51     12.30000000     56.11000000     43.92000000
C52     12.11000000     57.60000000     43.64000000
 C1     36.52000000     51.03000000     36.96000000
 C2     38.70000000     51.37000000     36.10000000
 C3     36.99000000     50.70000000     34.64000000
 N4     37.52000000     50.53000000     36.00000000
 C5     37.81000000     49.08000000     36.13000000
 C6     38.24000000     48.42000000     37.46000000
OS7     37.43000000     48.70000000     38.61000000
 P8     36.16000000     47.78000000     38.86000000
OM9     36.64000000     46.52000000     39.45000000
OM10     35.30000000     48.62000000     39.68000000
OS11     35.51000000     47.60000000     37.44000000
C12     34.21000000     48.15000000     37.18000000
C13     34.05000000     48.64000000     35.72000000
OS14     32.84000000     49.33000000     35.33000000
C15     33.04000000     50.62000000     34.90000000
O16     34.07000000     51.23000000     35.20000000
C17     31.91000000     51.20000000     34.07000000
C18     30.58000000     51.31000000     34.82000000
C19     29.52000000     52.03000000     33.98000000
C20     28.16000000     52.03000000     34.68000000
C21     27.22000000     53.04000000     34.02000000
C22     27.69000000     54.46000000     34.33000000
C23     26.90000000     55.54000000     33.59000000
C24     25.53000000     55.75000000     34.13000000
C25     25.04000000     56.93000000     34.56000000
C26     23.67000000     57.19000000     35.10000000
C27     22.83000000     58.09000000     34.19000000
C28     22.64000000     57.44000000     32.82000000
C29     21.72000000     58.25000000     31.91000000
C30     21.60000000     57.56000000     30.55000000
C31     20.64000000     58.29000000     29.62000000
C32     20.56000000     57.58000000     28.27000000
C33     19.95000000     56.19000000     28.43000000
C34     34.44000000     47.48000000     34.78000000
OS35     35.78000000     47.67000000     34.28000000
C36     36.08000000     47.14000000     33.06000000
O37     37.18000000     47.30000000     32.55000000
C38     34.87000000     46.48000000     32.40000000
C39     34.56000000     47.09000000     31.03000000
C40     34.08000000     48.53000000     31.18000000
C41     33.32000000     49.01000000     29.95000000
C42     32.86000000     50.46000000     30.12000000
C43     31.81000000     50.80000000     29.05000000
C44     30.53000000     50.02000000     29.34000000
C45     29.46000000     50.25000000     28.28000000
C46     28.19000000     49.48000000     28.64000000
C47     27.11000000     49.68000000     27.57000000
C48     27.52000000     49.04000000     26.25000000
C49     26.46000000     49.27000000     25.17000000
C50     26.36000000     50.76000000     24.82000000
C51     25.32000000     50.99000000     23.72000000
C52     25.77000000     50.36000000     22.40000000
 C1     61.49000000     36.44000000     47.10000000
 C2     61.65000000     35.58000000     44.86000000
 C3     59.66000000     36.61000000     45.57000000
 N4     61.12000000     36.67000000     45.70000000
 C5     61.60000000     37.99000000     45.24000000
 C6     63.12000000     38.30000000     45.21000000
OS7     63.75000000     38.36000000     46.49000000
 P8     65.34000000     38.28000000     46.36000000
OM9     65.54000000     39.37000000     45.39000000
OM10     65.71000000     38.47000000     47.76000000
OS11     65.32000000     36.77000000     45.90000000
C12     65.39000000     35.81000000     46.96000000
C13     64.60000000     34.53000000     46.61000000
OS14     64.37000000     33.58000000     47.69000000
C15     63.11000000     33.06000000     47.83000000
O16     62.10000000     33.56000000     47.33000000
C17     63.07000000     32.00000000     48.92000000
C18     61.74000000     31.99000000     49.68000000
C19     60.80000000     30.83000000     49.33000000
C20     59.69000000     30.70000000     50.39000000
C21     58.91000000     29.39000000     50.28000000
C22     58.09000000     29.10000000     51.55000000
C23     59.00000000     28.69000000     52.71000000
C24     58.30000000     28.29000000     53.98000000
C25     58.66000000     27.26000000     54.76000000
C26     58.03000000     26.78000000     56.04000000
C27     58.19000000     25.27000000     56.23000000
C28     57.34000000     24.47000000     55.23000000
C29     57.71000000     22.98000000     55.21000000
C30     56.83000000     22.23000000     54.20000000
C31     57.34000000     20.81000000     53.96000000
C32     56.41000000     20.07000000     52.99000000
C33     56.40000000     20.72000000     51.61000000
C34     65.25000000     33.96000000     45.33000000
OS35     64.25000000     33.48000000     44.41000000
C36     64.67000000     33.23000000     43.14000000
O37     65.79000000     33.50000000     42.70000000
C38     63.52000000     32.69000000     42.31000000
C39     63.78000000     32.86000000     40.81000000
C40     62.83000000     31.95000000     40.03000000
C41     63.19000000     30.49000000     40.32000000
C42     62.26000000     29.51000000     39.59000000
C43     62.69000000     28.07000000     39.88000000
C44     62.48000000     27.71000000     41.35000000