6100
Energy = -96846.47639986 au
 C1     56.65000000     60.21000000     39.07000000
 C2     55.91000000     58.07000000     38.39000000
 C3     56.11000000     58.55000000     40.68000000
 N4     55.72000000     59.12000000     39.40000000
 C5     54.35000000     59.64000000     39.57000000
 C6     53.49000000     59.98000000     38.33000000
OS7     52.96000000     58.80000000     37.74000000
 P8     52.78000000     58.92000000     36.17000000
OM9     51.86000000     57.81000000     35.96000000
OM10     52.33000000     60.30000000     35.97000000
OS11     54.29000000     58.70000000     35.80000000
C12     54.83000000     59.74000000     34.98000000
C13     56.32000000     59.97000000     35.24000000
OS14     56.81000000     61.28000000     34.85000000
C15     56.57000000     62.32000000     35.69000000
O16     55.99000000     62.16000000     36.77000000
C17     57.23000000     63.59000000     35.18000000
C18     56.22000000     64.62000000     34.66000000
C19     55.65000000     65.49000000     35.78000000
C20     56.68000000     66.51000000     36.27000000
C21     56.15000000     67.26000000     37.50000000
C22     57.14000000     68.33000000     37.96000000
C23     56.73000000     68.86000000     39.33000000
C24     57.67000000     69.91000000     39.87000000
C25     57.39000000     71.20000000     40.04000000
C26     58.33000000     72.24000000     40.57000000
C27     58.62000000     73.35000000     39.56000000
C28     59.33000000     72.81000000     38.31000000
C29     59.67000000     73.94000000     37.34000000
C30     60.75000000     74.84000000     37.93000000
C31     61.13000000     75.96000000     36.96000000
C32     62.20000000     76.86000000     37.58000000
C33     63.51000000     76.09000000     37.79000000
C34     57.07000000     58.75000000     34.67000000
OS35     57.05000000     58.64000000     33.24000000
C36     58.28000000     58.38000000     32.72000000
O37     59.20000000     57.89000000     33.37000000
C38     58.30000000     58.60000000     31.22000000
C39     58.05000000     60.07000000     30.91000000
C40     59.15000000     60.93000000     31.54000000
C41     58.98000000     62.40000000     31.16000000
C42     59.98000000     63.27000000     31.92000000
C43     59.97000000     64.69000000     31.35000000
C44     58.59000000     65.34000000     31.52000000
C45     58.54000000     66.65000000     30.72000000
C46     57.16000000     67.30000000     30.77000000
C47     57.12000000     68.45000000     29.77000000
C48     57.19000000     67.90000000     28.34000000
C49     57.41000000     69.00000000     27.31000000
C50     58.82000000     69.59000000     27.46000000
C51     59.11000000     70.62000000     26.37000000
C52     59.22000000     69.94000000     25.00000000
 C1     30.35000000     40.20000000     53.58000000
 C2     28.74000000     40.77000000     55.20000000
 C3     30.39000000     42.37000000     54.58000000
 N4     29.53000000     41.30000000     54.10000000
 C5     28.53000000     41.80000000     53.12000000
 C6     29.04000000     42.34000000     51.77000000
OS7     29.64000000     41.36000000     50.93000000
 P8     28.69000000     40.89000000     49.74000000
OM9     28.40000000     42.23000000     49.23000000
OM10     29.65000000     39.97000000     49.11000000
OS11     27.62000000     40.15000000     50.63000000
C12     27.81000000     38.74000000     50.64000000
C13     27.46000000     38.07000000     51.98000000
OS14     28.26000000     36.89000000     52.27000000
C15     28.75000000     36.85000000     53.54000000
O16     28.65000000     37.82000000     54.30000000
C17     29.67000000     35.68000000     53.84000000
C18     30.81000000     36.26000000     54.68000000
C19     31.72000000     35.21000000     55.32000000
C20     31.03000000     34.54000000     56.51000000
C21     31.99000000     33.58000000     57.20000000
C22     31.33000000     32.95000000     58.43000000
C23     32.34000000     32.11000000     59.22000000
C24     31.71000000     31.57000000     60.47000000
C25     30.45000000     31.81000000     60.86000000
C26     29.78000000     31.28000000     62.09000000
C27     28.95000000     30.04000000     61.75000000
C28     27.84000000     30.39000000     60.75000000
C29     27.10000000     29.13000000     60.29000000
C30     26.36000000     28.48000000     61.46000000
C31     25.63000000     27.22000000     61.01000000
C32     24.89000000     26.57000000     62.19000000
C33     23.76000000     27.47000000     62.68000000
C34     25.93000000     37.92000000     52.08000000
OS35     25.09000000     39.09000000     52.20000000
C36     25.11000000     39.81000000     53.36000000
O37     26.02000000     39.75000000     54.20000000
C38     24.01000000     40.85000000     53.37000000
C39     24.31000000     42.06000000     54.28000000
C40     24.20000000     41.75000000     55.78000000
C41     22.79000000     41.29000000     56.17000000
C42     22.73000000     40.98000000     57.67000000
C43     21.43000000     40.24000000     58.00000000
C44     21.46000000     38.86000000     57.33000000
C45     20.18000000     38.06000000     57.58000000
C46     20.29000000     36.71000000     56.88000000
C47     19.01000000     35.88000000     57.04000000
C48     17.84000000     36.53000000     56.31000000
C49     16.60000000     35.64000000     56.36000000
C50     16.15000000     35.42000000     57.81000000
C51     14.86000000     34.60000000     57.86000000
C52     13.69000000     35.38000000     57.28000000
 C1     38.88000000     36.08000000     50.66000000
 C2     38.13000000     35.07000000     52.68000000
 C3     40.36000000     35.82000000     52.54000000
 N4     38.99000000     36.12000000     52.12000000
 C5     38.45000000     37.39000000     52.63000000
 C6     39.18000000     38.74000000     52.42000000
OS7     38.29000000     39.85000000     52.31000000
 P8     38.20000000     40.78000000     53.58000000
OM9     39.58000000     41.12000000     53.93000000
OM10     37.26000000     41.85000000     53.21000000
OS11     37.48000000     39.83000000     54.62000000
C12     36.06000000     39.82000000     54.53000000
C13     35.45000000     38.44000000     54.21000000
OS14     34.10000000     38.50000000     53.67000000
C15     33.99000000     38.62000000     52.32000000
O16     34.50000000     39.57000000     51.72000000
C17     32.74000000     37.90000000     51.84000000
C18     32.60000000     37.99000000     50.32000000
C19     31.38000000     37.23000000     49.81000000
C20     31.62000000     35.72000000     49.72000000
C21     30.39000000     35.00000000     49.18000000
C22     30.69000000     33.56000000     48.78000000
C23     29.48000000     32.91000000     48.11000000
C24     29.81000000     31.56000000     47.56000000
C25     30.12000000     31.26000000     46.29000000
C26     30.50000000     29.92000000     45.74000000
C27     29.77000000     29.54000000     44.45000000
C28     28.27000000     29.31000000     44.68000000
C29     27.69000000     28.45000000     43.56000000
C30     28.40000000     27.09000000     43.56000000
C31     27.77000000     26.12000000     42.56000000
C32     26.42000000     25.60000000     43.08000000
C33     26.62000000     24.67000000     44.28000000
C34     35.67000000     37.55000000     55.44000000
OS35     35.67000000     36.15000000     55.15000000
C36     35.89000000     35.32000000     56.21000000
O37     36.11000000     35.69000000     57.36000000
C38     35.85000000     33.87000000     55.77000000
C39     36.00000000     32.93000000     56.96000000
C40     35.77000000     31.48000000     56.54000000
C41     35.89000000     30.53000000     57.72000000
C42     35.63000000     29.08000000     57.28000000
C43     35.76000000     28.10000000     58.44000000
C44     34.59000000     28.22000000     59.43000000
C45     33.28000000     27.72000000     58.81000000
C46     32.14000000     27.79000000     59.82000000
C47     30.82000000     27.34000000     59.20000000
C48     30.83000000     25.84000000     58.89000000
C49     29.52000000     25.42000000     58.22000000
C50     29.57000000     23.94000000     57.82000000
C51     28.30000000     23.55000000     57.07000000
C52     27.07000000     23.63000000     57.98000000
 C1     47.91000000     34.11000000     53.05000000
 C2     45.96000000     33.27000000     52.00000000
 C3     47.20000000     35.05000000     50.99000000
 N4     47.31000000     33.80000000     51.75000000
 C5     48.15000000     32.77000000     51.09000000
 C6     49.06000000     33.09000000     49.86000000
OS7     50.04000000     34.13000000     49.90000000
 P8     51.35000000     33.89000000     50.78000000
OM9     52.27000000     34.85000000     50.15000000
OM10     50.78000000     34.13000000     52.11000000
OS11     51.72000000     32.40000000     50.45000000
C12     51.72000000     31.54000000     51.59000000
C13     51.85000000     30.06000000     51.20000000
OS14     50.83000000     29.20000000     51.76000000
C15     49.71000000     29.04000000     50.99000000
O16     49.26000000     29.96000000     50.30000000
C17     48.87000000     27.85000000     51.42000000
C18     48.26000000     27.21000000     50.18000000
C19     47.36000000     26.02000000     50.51000000
C20     46.94000000     25.28000000     49.24000000
C21     46.27000000     26.26000000     48.27000000
C22     45.74000000     25.57000000     47.01000000
C23     45.23000000     26.64000000     46.04000000
C24     44.51000000     26.10000000     44.85000000
C25     43.21000000     26.31000000     44.57000000
C26     42.48000000     25.79000000     43.37000000
C27     41.11000000     25.20000000     43.69000000
C28     41.22000000     23.94000000     44.55000000
C29     39.86000000     23.24000000     44.62000000
C30     39.48000000     22.74000000     43.22000000
C31     38.13000000     22.02000000     43.23000000
C32     37.78000000     21.53000000     41.82000000
C33     38.75000000     20.44000000     41.37000000
C34     53.33000000     29.71000000     51.46000000
OS35     53.80000000     28.47000000     50.90000000
C36     55.15000000     28.36000000     50.77000000
O37     55.94000000     29.27000000     51.02000000
C38     55.55000000     26.99000000     50.25000000
C39     56.88000000     27.03000000     49.50000000
C40     56.73000000     27.44000000     48.04000000
C41     56.06000000     26.32000000     47.24000000
C42     56.18000000     26.54000000     45.73000000
C43     55.53000000     25.37000000     44.97000000
C44     54.01000000     25.49000000     44.98000000
C45     53.32000000     24.23000000     44.46000000
C46     51.82000000     24.47000000     44.29000000
C47     51.06000000     23.17000000     44.04000000
C48     50.80000000     22.43000000     45.35000000
C49     49.99000000     21.15000000     45.12000000
C50     49.74000000     20.43000000     46.44000000
C51     48.94000000     19.14000000     46.23000000
C52     48.70000000     18.43000000     47.56000000
 C1     64.09000000     45.11000000     39.97000000
 C2     65.80000000     43.91000000     38.89000000
 C3     65.74000000     46.27000000     38.58000000
 N4     64.91000000     45.07000000     38.75000000
 C5     64.05000000     44.82000000     37.57000000
 C6     62.94000000     45.83000000     37.19000000
OS7     63.41000000     47.06000000     36.63000000
 P8     63.05000000     47.14000000     35.08000000
OM9     61.61000000     46.83000000     35.16000000
OM10     63.51000000     48.48000000     34.75000000
OS11     64.13000000     46.07000000     34.64000000
C12     65.28000000     46.69000000     34.06000000
C13     66.59000000     46.53000000     34.86000000
OS14     67.63000000     47.48000000     34.53000000
C15     68.16000000     48.17000000     35.58000000
O16     67.73000000     48.05000000     36.73000000
C17     69.38000000     48.98000000     35.16000000
C18     69.68000000     50.10000000     36.16000000
C19     70.99000000     50.84000000     35.87000000
C20     71.07000000     52.10000000     36.74000000
C21     72.33000000     52.92000000     36.49000000
C22     73.52000000     52.39000000     37.29000000
C23     74.76000000     53.26000000     37.08000000
C24     75.87000000     52.89000000     38.01000000
C25     76.89000000     52.05000000     37.75000000
C26     77.99000000     51.67000000     38.69000000
C27     79.36000000     51.72000000     38.00000000
C28     79.40000000     50.74000000     36.83000000
C29     80.77000000     50.77000000     36.15000000
C30     81.84000000     50.15000000     37.05000000
C31     83.22000000     50.21000000     36.38000000
C32     84.27000000     49.50000000     37.24000000
C33     84.00000000     48.00000000     37.30000000
C34     67.06000000     45.07000000     34.68000000
OS35     66.62000000     44.17000000     35.71000000
C36     67.07000000     42.89000000     35.60000000
O37     66.81000000     42.05000000     36.46000000
C38     67.94000000     42.68000000     34.37000000
C39     67.82000000     41.24000000     33.85000000
C40     68.82000000     40.96000000     32.72000000
C41     70.24000000     40.92000000     33.27000000
C42     71.11000000     42.01000000     32.64000000
C43     71.79000000     41.55000000     31.34000000
C44     72.56000000     42.74000000     30.76000000
C45     73.60000000     42.28000000     29.74000000
C46     74.29000000     43.50000000     29.11000000
C47     75.54000000     43.06000000     28.35000000
C48     75.20000000     42.10000000     27.22000000
C49     76.48000000     41.57000000     26.58000000
C50     77.28000000     40.75000000     27.60000000
C51     78.57000000     40.20000000     26.98000000
C52     78.25000000     39.16000000     25.91000000
 C1     37.24000000     60.70000000     58.78000000
 C2     38.62000000     58.75000000     58.40000000
 C3     39.49000000     60.61000000     59.54000000
 N4     38.28000000     59.82000000     59.34000000
 C5     37.86000000     59.21000000     60.62000000
 C6     36.50000000     58.48000000     60.67000000
OS7     36.24000000     57.50000000     59.65000000
 P8     34.82000000     56.80000000     59.77000000
OM9     34.98000000     55.66000000     58.85000000
OM10     34.63000000     56.63000000     61.20000000
OS11     33.86000000     57.91000000     59.17000000
C12     33.04000000     58.54000000     60.16000000
C13     33.30000000     60.06000000     60.29000000
OS14     33.23000000     60.52000000     61.66000000
C15     34.36000000     61.12000000     62.12000000
O16     35.36000000     61.24000000     61.41000000
C17     34.27000000     61.52000000     63.58000000
C18     35.65000000     61.79000000     64.18000000
C19     35.55000000     62.22000000     65.65000000
C20     34.93000000     63.61000000     65.80000000
C21     35.89000000     64.72000000     65.37000000
C22     37.00000000     64.98000000     66.40000000
C23     38.03000000     65.96000000     65.83000000
C24     39.06000000     66.36000000     66.83000000
C25     39.04000000     66.05000000     68.14000000
C26     40.05000000     66.43000000     69.17000000
C27     40.08000000     65.41000000     70.32000000
C28     38.73000000     65.28000000     71.04000000
C29     38.57000000     66.16000000     72.28000000
C30     38.25000000     67.62000000     71.98000000
C31     38.03000000     68.41000000     73.27000000
C32     37.81000000     69.89000000     72.97000000
C33     36.53000000     70.10000000     72.15000000
C34     32.42000000     60.74000000     59.23000000
OS35     32.73000000     62.10000000     58.84000000
C36     33.76000000     62.28000000     57.96000000
O37     34.45000000     61.36000000     57.51000000
C38     33.94000000     63.74000000     57.58000000
C39     32.64000000     64.51000000     57.73000000
C40     32.73000000     65.91000000     57.11000000
C41     31.47000000     66.70000000     57.44000000
C42     31.49000000     67.05000000     58.93000000
C43     30.22000000     67.73000000     59.43000000
C44     30.40000000     68.08000000     60.91000000
C45     29.15000000     68.71000000     61.53000000
C46     29.45000000     69.10000000     62.98000000
C47     28.23000000     69.70000000     63.67000000
C48     27.17000000     68.64000000     63.94000000
C49     25.97000000     69.23000000     64.68000000
C50     24.93000000     68.16000000     64.99000000
C51     23.75000000     68.77000000     65.75000000
C52     22.70000000     67.70000000     66.09000000
 C1     55.02000000     59.11000000     64.05000000
 C2     56.18000000     58.80000000     66.05000000
 C3     55.81000000     56.89000000     64.78000000
 N4     56.09000000     58.33000000     64.68000000
 C5     57.40000000     58.59000000     64.03000000
 C6     57.75000000     57.97000000     62.66000000
OS7     56.91000000     58.20000000     61.53000000
 P8     57.01000000     59.60000000     60.77000000
OM9     57.16000000     59.11000000     59.39000000
OM10     55.76000000     60.14000000     61.28000000
OS11     58.29000000     60.33000000     61.36000000
C12     58.01000000     61.67000000     61.80000000
C13     58.45000000     61.93000000     63.25000000
OS14     57.66000000     62.91000000     63.98000000
C15     57.40000000     62.50000000     65.25000000
O16     57.60000000     61.33000000     65.56000000
C17     56.66000000     63.51000000     66.12000000
C18     56.45000000     62.95000000     67.53000000
C19     55.26000000     61.98000000     67.58000000
C20     55.22000000     61.15000000     68.86000000
C21     54.01000000     60.22000000     68.85000000
C22     53.99000000     59.26000000     70.03000000
C23     53.72000000     59.96000000     71.36000000
C24     53.76000000     58.99000000     72.50000000
C25     52.96000000     58.99000000     73.58000000
C26     53.01000000     58.02000000     74.72000000
C27     53.46000000     58.65000000     76.04000000
C28     54.93000000     59.08000000     75.99000000
C29     55.36000000     59.72000000     77.32000000
C30     55.36000000     58.68000000     78.44000000
C31     55.77000000     59.32000000     79.77000000
C32     55.79000000     58.28000000     80.89000000
C33     56.91000000     57.25000000     80.66000000
C34     59.99000000     62.03000000     63.29000000
OS35     60.59000000     60.99000000     64.08000000
C36     60.98000000     61.36000000     65.34000000
O37     61.06000000     62.52000000     65.74000000
C38     61.41000000     60.13000000     66.13000000
C39     62.55000000     60.40000000     67.11000000
C40     63.35000000     59.11000000     67.30000000
C41     64.42000000     59.22000000     68.39000000
C42     63.84000000     58.82000000     69.75000000
C43     64.94000000     58.87000000     70.82000000
C44     64.49000000     58.24000000     72.14000000
C45     63.38000000     59.03000000     72.84000000
C46     63.86000000     60.42000000     73.27000000
C47     62.82000000     61.11000000     74.16000000
C48     63.18000000     62.59000000     74.32000000
C49     64.53000000     62.76000000     75.01000000
C50     64.93000000     64.24000000     75.06000000
C51     66.33000000     64.40000000     75.66000000
C52     66.34000000     64.02000000     77.14000000
 C1     63.52000000     49.15000000     57.83000000
 C2     63.58000000     46.75000000     57.68000000
 C3     65.12000000     47.90000000     59.08000000
 N4     63.73000000     47.90000000     58.58000000
 C5     62.75000000     47.75000000     59.67000000
 C6     62.51000000     48.91000000     60.67000000
OS7     63.69000000     49.34000000     61.33000000
 P8     63.58000000     50.88000000     61.58000000
OM9     63.88000000     51.36000000     60.22000000
OM10     62.27000000     51.15000000     62.16000000
OS11     64.77000000     51.04000000     62.59000000
C12     64.48000000     50.51000000     63.89000000
C13     65.18000000     49.17000000     64.18000000
OS14     64.91000000     48.62000000     65.49000000
C15     64.32000000     47.40000000     65.50000000
O16     63.81000000     46.93000000     64.48000000
C17     64.23000000     46.81000000     66.89000000
C18     63.57000000     45.43000000     66.91000000
C19     63.62000000     44.88000000     68.33000000
C20     63.08000000     43.46000000     68.43000000
C21     63.36000000     42.92000000     69.83000000
C22     64.88000000     42.84000000     70.01000000
C23     65.31000000     42.39000000     71.40000000
C24     66.80000000     42.39000000     71.49000000
C25     67.60000000     41.32000000     71.32000000
C26     69.09000000     41.29000000     71.39000000
C27     69.64000000     40.63000000     72.65000000
C28     69.42000000     41.48000000     73.90000000
C29     70.01000000     40.80000000     75.14000000
C30     71.53000000     40.64000000     74.98000000
C31     72.15000000     40.00000000     76.22000000
C32     73.64000000     39.71000000     75.99000000
C33     74.44000000     41.00000000     75.81000000
C34     66.68000000     49.41000000     63.95000000
OS35     67.51000000     48.24000000     63.83000000
C36     68.42000000     48.09000000     64.84000000
O37     68.57000000     48.92000000     65.72000000
C38     69.35000000     46.92000000     64.55000000
C39     70.76000000     47.19000000     65.08000000
C40     70.87000000     46.79000000     66.55000000
C41     72.11000000     47.38000000     67.24000000
C42     73.41000000     46.91000000     66.59000000
C43     74.59000000     47.29000000     67.50000000
C44     74.60000000     48.80000000     67.73000000
C45     75.64000000     49.19000000     68.78000000
C46     75.57000000     50.69000000     69.08000000
C47     76.56000000     51.08000000     70.18000000
C48     78.00000000     50.91000000     69.70000000
C49     78.98000000     51.24000000     70.84000000
C50     78.85000000     50.21000000     71.96000000
C51     79.84000000     50.51000000     73.09000000
C52     81.28000000     50.30000000     72.62000000
 C1     54.10000000     41.82000000     40.76000000
 C2     52.65000000     43.46000000     39.84000000
 C3     54.68000000     44.14000000     40.87000000
 N4     54.05000000     43.10000000     40.04000000
 C5     54.68000000     42.99000000     38.70000000
 C6     56.11000000     42.41000000     38.57000000
OS7     57.19000000     43.06000000     39.24000000
 P8     57.77000000     44.35000000     38.54000000
OM9     56.79000000     45.37000000     38.96000000
OM10     59.16000000     44.51000000     38.93000000
OS11     57.63000000     44.12000000     37.01000000
C12     58.69000000     43.41000000     36.36000000
C13     58.31000000     43.10000000     34.89000000
OS14     57.34000000     42.04000000     34.72000000
C15     55.99000000     42.29000000     34.73000000
O16     55.48000000     43.35000000     35.10000000
C17     55.21000000     41.02000000     34.45000000
C18     55.81000000     39.78000000     35.11000000
C19     56.79000000     39.00000000     34.22000000
C20     56.02000000     38.34000000     33.08000000
C21     56.90000000     37.47000000     32.19000000
C22     56.06000000     36.83000000     31.08000000
C23     55.10000000     35.79000000     31.66000000
C24     54.26000000     35.16000000     30.59000000
C25     53.06000000     34.59000000     30.74000000
C26     52.24000000     33.96000000     29.64000000
C27     52.13000000     32.44000000     29.75000000
C28     53.50000000     31.76000000     29.67000000
C29     53.40000000     30.24000000     29.59000000
C30     52.98000000     29.79000000     28.19000000
C31     53.01000000     28.27000000     28.07000000
C32     52.66000000     27.83000000     26.64000000
C33     53.75000000     28.28000000     25.66000000
C34     59.62000000     42.77000000     34.16000000
OS35     60.54000000     43.88000000     34.10000000
C36     61.07000000     44.14000000     32.87000000
O37     61.94000000     44.98000000     32.68000000
C38     60.49000000     43.19000000     31.83000000
C39     61.17000000     43.25000000     30.45000000
C40     60.87000000     44.54000000     29.68000000
C41     61.12000000     44.33000000     28.19000000
C42     60.12000000     43.28000000     27.69000000
C43     60.28000000     42.95000000     26.21000000
C44     61.61000000     42.25000000     25.90000000
C45     61.80000000     40.91000000     26.62000000
C46     60.76000000     39.85000000     26.24000000
C47     60.83000000     39.44000000     24.77000000
C48     62.13000000     38.70000000     24.43000000
C49     62.10000000     38.29000000     22.95000000
C50     62.01000000     39.53000000     22.06000000
C51     61.90000000     39.14000000     20.59000000
C52     61.76000000     40.39000000     19.71000000
 C1     45.54000000     34.71000000     46.38000000
 C2     46.59000000     36.87000000     46.66000000
 C3     47.90000000     34.91000000     46.58000000
 N4     46.69000000     35.55000000     46.04000000
 C5     46.74000000     35.60000000     44.56000000
 C6     47.48000000     36.68000000     43.74000000
OS7     48.87000000     36.96000000     43.90000000
 P8     49.91000000     35.85000000     43.45000000
OM9     50.99000000     36.58000000     42.78000000
OM10     50.19000000     35.24000000     44.75000000
OS11     49.19000000     34.80000000     42.55000000
C12     49.80000000     33.51000000     42.73000000
C13     48.86000000     32.30000000     42.64000000
OS14     48.91000000     31.39000000     43.77000000
C15     47.88000000     31.51000000     44.65000000
O16     47.20000000     32.54000000     44.72000000
C17     47.84000000     30.44000000     45.72000000
C18     47.53000000     31.14000000     47.05000000
C19     46.62000000     30.34000000     47.99000000
C20     45.18000000     30.34000000     47.50000000
C21     44.27000000     29.59000000     48.48000000
C22     42.92000000     29.28000000     47.84000000
C23     42.08000000     28.36000000     48.73000000
C24     40.84000000     27.90000000     48.02000000
C25     40.29000000     26.68000000     48.06000000
C26     39.05000000     26.28000000     47.31000000
C27     37.77000000     26.46000000     48.13000000
C28     37.70000000     25.48000000     49.30000000
C29     36.39000000     25.65000000     50.06000000
C30     35.19000000     25.29000000     49.18000000
C31     33.87000000     25.45000000     49.94000000
C32     32.68000000     25.17000000     49.03000000
C33     32.65000000     23.70000000     48.61000000
C34     49.10000000     31.65000000     41.27000000
OS35     48.35000000     32.22000000     40.19000000
C36     48.62000000     31.70000000     38.97000000
O37     49.68000000     31.14000000     38.69000000
C38     47.57000000     32.14000000     37.96000000
C39     46.50000000     31.06000000     37.82000000
C40     45.25000000     31.58000000     37.11000000
C41     44.20000000     30.46000000     37.11000000
C42     42.86000000     30.89000000     36.53000000
C43     41.89000000     29.71000000     36.60000000
C44     41.52000000     29.40000000     38.05000000
C45     40.83000000     28.04000000     38.14000000
C46     40.49000000     27.68000000     39.59000000
C47     40.11000000     26.20000000     39.68000000
C48     41.34000000     25.35000000     39.32000000
C49     41.02000000     23.86000000     39.36000000
C50     42.27000000     23.05000000     38.99000000
C51     41.97000000     21.55000000     39.01000000
C52     43.21000000     20.74000000     38.63000000
 C1     65.28000000     54.85000000     52.25000000
 C2     65.58000000     54.26000000     54.55000000
 C3     66.11000000     52.69000000     52.84000000
 N4     66.12000000     54.11000000     53.19000000
 C5     67.54000000     54.57000000     53.18000000
 C6     67.80000000     56.09000000     53.24000000
OS7     67.26000000     56.76000000     54.38000000
 P8     66.77000000     58.24000000     54.08000000
OM9     65.80000000     58.04000000     52.98000000
OM10     66.32000000     58.79000000     55.36000000
OS11     68.06000000     58.95000000     53.52000000
C12     69.20000000     58.94000000     54.38000000
C13     70.48000000     58.67000000     53.57000000
OS14     71.57000000     58.10000000     54.34000000
C15     72.12000000     56.94000000     53.86000000
O16     71.47000000     56.11000000     53.21000000
C17     73.53000000     56.79000000     54.41000000
C18     73.93000000     55.42000000     54.96000000
C19     75.13000000     55.66000000     55.88000000
C20     75.57000000     54.49000000     56.75000000
C21     76.48000000     55.06000000     57.84000000
C22     77.09000000     54.02000000     58.79000000
C23     77.96000000     54.75000000     59.82000000
C24     78.87000000     53.86000000     60.62000000
C25     78.90000000     52.52000000     60.63000000
C26     79.87000000     51.65000000     61.38000000
C27     79.33000000     51.04000000     62.69000000
C28     79.22000000     52.06000000     63.83000000
C29     80.24000000     51.81000000     64.95000000
C30     81.67000000     52.16000000     64.52000000
C31     82.66000000     51.94000000     65.66000000
C32     84.08000000     52.28000000     65.20000000
C33     84.20000000     53.76000000     64.84000000
C34     70.76000000     59.97000000     52.80000000
OS35     71.95000000     60.03000000     51.99000000
C36     73.01000000     60.67000000     52.59000000
O37     72.86000000     61.42000000     53.55000000
C38     74.24000000     60.62000000     51.71000000
C39     75.54000000     60.78000000     52.50000000
C40     75.91000000     59.48000000     53.20000000
C41     77.22000000     59.64000000     53.98000000
C42     77.65000000     58.33000000     54.63000000
C43     78.93000000     58.54000000     55.44000000
C44     78.65000000     59.44000000     56.65000000