6100
Energy = -97524.56277135 au
 C1     50.91000000     41.49000000     60.13000000
 C2     49.11000000     42.10000000     61.61000000
 C3     50.63000000     40.40000000     62.22000000
 N4     50.52000000     41.69000000     61.53000000
 C5     51.51000000     42.58000000     62.17000000
 C6     51.34000000     44.12000000     62.08000000
OS7     50.19000000     44.65000000     62.75000000
 P8     50.35000000     44.84000000     64.32000000
OM9     51.71000000     45.36000000     64.47000000
OM10     49.18000000     45.70000000     64.49000000
OS11     50.12000000     43.34000000     64.69000000
C12     48.98000000     43.06000000     65.49000000
C13     48.60000000     41.58000000     65.35000000
OS14     47.22000000     41.29000000     65.68000000
C15     46.31000000     41.28000000     64.67000000
O16     46.62000000     41.47000000     63.49000000
C17     44.95000000     40.84000000     65.19000000
C18     44.91000000     39.33000000     65.43000000
C19     43.77000000     38.95000000     66.37000000
C20     43.33000000     37.49000000     66.26000000
C21     42.20000000     37.26000000     67.27000000
C22     41.57000000     35.87000000     67.18000000
C23     40.72000000     35.73000000     65.92000000
C24     39.92000000     34.46000000     65.94000000
C25     38.64000000     34.35000000     66.33000000
C26     37.84000000     33.08000000     66.36000000
C27     37.08000000     32.87000000     67.67000000
C28     38.03000000     32.90000000     68.86000000
C29     37.39000000     32.34000000     70.14000000
C30     37.22000000     30.82000000     70.03000000
C31     36.67000000     30.24000000     71.33000000
C32     36.48000000     28.73000000     71.22000000
C33     37.82000000     28.02000000     71.09000000
C34     49.66000000     40.76000000     66.09000000
OS35     49.75000000     39.39000000     65.65000000
C36     50.68000000     38.67000000     66.32000000
O37     51.62000000     39.15000000     66.96000000
C38     50.63000000     37.23000000     65.85000000
C39     51.87000000     36.45000000     66.26000000
C40     51.79000000     35.00000000     65.80000000
C41     53.07000000     34.24000000     66.14000000
C42     52.89000000     32.74000000     65.89000000
C43     54.15000000     31.96000000     66.23000000
C44     54.47000000     32.03000000     67.73000000
C45     53.44000000     31.28000000     68.58000000
C46     53.79000000     31.41000000     70.06000000
C47     52.68000000     30.85000000     70.95000000
C48     53.01000000     31.06000000     72.43000000
C49     51.83000000     30.67000000     73.31000000
C50     51.53000000     29.17000000     73.24000000
C51     50.33000000     28.82000000     74.11000000
C52     50.64000000     29.05000000     75.59000000
 C1     26.14000000     43.12000000     48.55000000
 C2     25.36000000     45.03000000     47.34000000
 C3     27.60000000     44.88000000     48.07000000
 N4     26.49000000     44.11000000     47.53000000
 C5     26.95000000     43.49000000     46.26000000
 C6     25.95000000     42.65000000     45.45000000
OS7     25.48000000     41.49000000     46.13000000
 P8     24.09000000     41.02000000     45.58000000
OM9     24.15000000     41.18000000     44.13000000
OM10     23.76000000     39.77000000     46.27000000
OS11     23.31000000     42.23000000     46.22000000
C12     22.58000000     41.90000000     47.40000000
C13     22.30000000     43.11000000     48.31000000
OS14     21.81000000     42.75000000     49.62000000
C15     22.67000000     42.99000000     50.64000000
O16     23.77000000     43.52000000     50.49000000
C17     22.11000000     42.49000000     51.96000000
C18     23.20000000     42.37000000     53.02000000
C19     22.66000000     41.60000000     54.23000000
C20     23.76000000     41.30000000     55.25000000
C21     23.12000000     40.62000000     56.46000000
C22     24.13000000     40.37000000     57.58000000
C23     23.38000000     40.14000000     58.90000000
C24     22.66000000     41.40000000     59.31000000
C25     21.34000000     41.61000000     59.40000000
C26     20.70000000     42.90000000     59.80000000
C27     19.27000000     42.70000000     60.32000000
C28     18.45000000     41.95000000     59.28000000
C29     16.97000000     41.92000000     59.63000000
C30     16.34000000     43.29000000     59.34000000
C31     14.83000000     43.27000000     59.59000000
C32     14.21000000     44.61000000     59.18000000
C33     14.33000000     44.82000000     57.67000000
C34     21.46000000     44.14000000     47.53000000
OS35     22.22000000     44.99000000     46.65000000
C36     21.70000000     45.14000000     45.40000000
O37     20.63000000     44.66000000     45.05000000
C38     22.60000000     46.03000000     44.55000000
C39     21.95000000     46.64000000     43.30000000
C40     21.12000000     47.90000000     43.58000000
C41     19.66000000     47.58000000     43.89000000
C42     18.89000000     48.77000000     44.44000000
C43     17.53000000     48.28000000     44.95000000
C44     17.76000000     47.30000000     46.11000000
C45     16.47000000     46.56000000     46.49000000
C46     16.73000000     45.56000000     47.61000000
C47     15.50000000     44.69000000     47.85000000
C48     15.28000000     43.75000000     46.65000000
C49     14.02000000     42.90000000     46.83000000
C50     12.77000000     43.77000000     46.76000000
C51     11.50000000     42.92000000     46.88000000
C52     11.34000000     42.02000000     45.65000000
 C1     63.82000000     42.01000000     41.51000000
 C2     64.41000000     41.61000000     43.76000000
 C3     64.39000000     39.82000000     42.23000000
 N4     64.72000000     41.24000000     42.38000000
 C5     66.16000000     41.48000000     42.12000000
 C6     66.74000000     41.21000000     40.71000000
OS7     66.29000000     42.16000000     39.74000000
 P8     65.71000000     41.44000000     38.45000000
OM9     64.81000000     40.42000000     39.00000000
OM10     65.19000000     42.56000000     37.67000000
OS11     67.04000000     40.87000000     37.86000000
C12     67.79000000     41.83000000     37.12000000
C13     69.26000000     42.01000000     37.58000000
OS14     69.96000000     43.08000000     36.91000000
C15     69.73000000     44.35000000     37.34000000
O16     68.98000000     44.61000000     38.29000000
C17     70.70000000     45.34000000     36.71000000
C18     72.12000000     44.92000000     37.10000000
C19     73.19000000     45.92000000     36.69000000
C20     73.04000000     47.25000000     37.43000000
C21     74.36000000     48.02000000     37.40000000
C22     75.37000000     47.32000000     38.31000000
C23     76.73000000     48.03000000     38.35000000
C24     77.60000000     47.42000000     39.41000000
C25     78.52000000     46.46000000     39.26000000
C26     79.34000000     45.87000000     40.37000000
C27     80.61000000     46.68000000     40.65000000
C28     81.55000000     46.65000000     39.45000000
C29     82.82000000     47.45000000     39.74000000
C30     83.65000000     46.78000000     40.84000000
C31     84.92000000     47.57000000     41.12000000
C32     85.74000000     46.94000000     42.25000000
C33     86.32000000     45.59000000     41.82000000
C34     69.95000000     40.64000000     37.43000000
OS35     69.64000000     39.69000000     38.47000000
C36     69.98000000     38.41000000     38.17000000
O37     70.56000000     38.07000000     37.14000000
C38     69.56000000     37.46000000     39.28000000
C39     70.76000000     36.61000000     39.71000000
C40     71.66000000     37.40000000     40.65000000
C41     73.08000000     36.82000000     40.67000000
C42     73.97000000     37.57000000     41.66000000
C43     75.44000000     37.31000000     41.33000000
C44     75.82000000     38.09000000     40.07000000
C45     77.21000000     37.72000000     39.56000000
C46     77.60000000     38.62000000     38.38000000
C47     78.86000000     38.09000000     37.70000000
C48     78.54000000     36.79000000     36.96000000
C49     79.78000000     36.20000000     36.29000000
C50     80.77000000     35.69000000     37.33000000
C51     81.98000000     35.04000000     36.65000000
C52     81.58000000     33.76000000     35.92000000
 C1     24.52000000     51.45000000     49.63000000
 C2     26.45000000     51.66000000     48.26000000
 C3     26.61000000     50.89000000     50.53000000
 N4     25.81000000     50.84000000     49.30000000
 C5     25.57000000     49.48000000     48.78000000
 C6     26.78000000     48.52000000     48.58000000
OS7     27.91000000     48.98000000     47.85000000
 P8     27.91000000     48.64000000     46.30000000
OM9     29.32000000     48.83000000     45.95000000
OM10     27.30000000     47.32000000     46.17000000
OS11     26.97000000     49.78000000     45.80000000
C12     26.01000000     49.35000000     44.83000000
C13     24.87000000     50.35000000     44.61000000
OS14     23.64000000     49.96000000     45.27000000
C15     23.13000000     50.91000000     46.09000000
O16     23.86000000     51.77000000     46.59000000
C17     21.75000000     50.54000000     46.62000000
C18     20.94000000     51.77000000     47.03000000
C19     21.36000000     52.32000000     48.39000000
C20     21.04000000     53.80000000     48.58000000
C21     21.66000000     54.29000000     49.89000000
C22     21.62000000     55.81000000     50.01000000
C23     20.19000000     56.33000000     50.17000000
C24     20.17000000     57.82000000     50.19000000
C25     19.87000000     58.63000000     51.22000000
C26     19.88000000     60.13000000     51.18000000
C27     18.49000000     60.75000000     51.37000000
C28     17.53000000     60.31000000     50.25000000
C29     16.21000000     61.08000000     50.31000000
C30     16.42000000     62.52000000     49.86000000
C31     15.09000000     63.28000000     49.82000000
C32     15.30000000     64.71000000     49.30000000
C33     15.73000000     64.69000000     47.83000000
C34     24.73000000     50.50000000     43.08000000
OS35     24.73000000     51.86000000     42.60000000
C36     25.93000000     52.47000000     42.40000000
O37     27.02000000     51.98000000     42.69000000
C38     25.73000000     53.91000000     41.93000000
C39     24.34000000     54.10000000     41.32000000
C40     24.02000000     55.59000000     41.14000000
C41     22.56000000     55.78000000     40.72000000
C42     22.20000000     57.27000000     40.64000000
C43     20.74000000     57.46000000     40.24000000
C44     19.81000000     57.01000000     41.37000000
C45     18.34000000     57.20000000     41.02000000
C46     17.46000000     56.78000000     42.21000000
C47     15.98000000     57.01000000     41.94000000
C48     15.44000000     56.05000000     40.88000000
C49     13.94000000     56.22000000     40.70000000
C50     13.39000000     55.27000000     39.65000000
C51     11.87000000     55.41000000     39.51000000
C52     11.17000000     54.93000000     40.78000000
 C1     67.29000000     54.33000000     49.32000000
 C2     68.36000000     53.73000000     47.28000000
 C3     66.22000000     54.80000000     47.23000000
 N4     67.51000000     54.73000000     47.93000000
 C5     68.26000000     56.00000000     47.83000000
 C6     67.66000000     57.31000000     48.40000000
OS7     67.40000000     57.32000000     49.80000000
 P8     66.37000000     58.42000000     50.25000000
OM9     65.19000000     58.16000000     49.38000000
OM10     66.27000000     58.24000000     51.70000000
OS11     67.15000000     59.73000000     49.85000000
C12     67.57000000     60.51000000     50.98000000
C13     69.07000000     60.53000000     51.31000000
OS14     69.45000000     61.27000000     52.50000000
C15     70.00000000     60.56000000     53.52000000
O16     69.61000000     59.43000000     53.79000000
C17     70.80000000     61.45000000     54.47000000
C18     71.43000000     60.62000000     55.58000000
C19     72.51000000     59.68000000     55.03000000
C20     72.90000000     58.59000000     56.03000000
C21     73.90000000     59.08000000     57.07000000
C22     75.26000000     59.32000000     56.43000000
C23     75.87000000     58.01000000     55.95000000
C24     77.20000000     58.20000000     55.29000000
C25     78.27000000     57.42000000     55.48000000
C26     79.61000000     57.59000000     54.84000000
C27     79.82000000     56.64000000     53.66000000
C28     81.24000000     56.77000000     53.12000000
C29     81.53000000     55.76000000     52.01000000
C30     82.99000000     55.85000000     51.58000000
C31     83.30000000     54.86000000     50.46000000
C32     84.79000000     54.87000000     50.13000000
C33     85.61000000     54.33000000     51.31000000
C34     69.80000000     61.10000000     50.09000000
OS35     69.99000000     60.23000000     48.97000000
C36     71.04000000     60.63000000     48.21000000
O37     71.62000000     61.69000000     48.41000000
C38     71.24000000     59.74000000     47.00000000
C39     72.54000000     60.10000000     46.27000000
C40     73.76000000     59.63000000     47.05000000
C41     75.04000000     60.03000000     46.31000000
C42     76.27000000     59.37000000     46.94000000
C43     77.54000000     59.84000000     46.23000000
C44     77.83000000     61.30000000     46.58000000
C45     79.07000000     61.80000000     45.85000000
C46     79.35000000     63.26000000     46.21000000
C47     80.55000000     63.80000000     45.43000000
C48     80.23000000     63.89000000     43.94000000
C49     81.43000000     64.42000000     43.15000000
C50     82.59000000     63.42000000     43.18000000
C51     83.79000000     63.95000000     42.39000000
C52     83.46000000     64.04000000     40.90000000
 C1     49.02000000     61.14000000     52.62000000
 C2     48.66000000     60.73000000     54.95000000
 C3     49.36000000     58.98000000     53.55000000
 N4     49.52000000     60.42000000     53.80000000
 C5     50.95000000     60.68000000     54.08000000
 C6     51.50000000     62.12000000     54.26000000
OS7     51.52000000     62.90000000     53.07000000
 P8     52.94000000     63.00000000     52.37000000
OM9     53.66000000     61.75000000     52.69000000
OM10     52.62000000     63.30000000     50.97000000
OS11     53.53000000     64.21000000     53.16000000
C12     53.55000000     65.43000000     52.41000000
C13     52.75000000     66.55000000     53.09000000
OS14     52.38000000     67.65000000     52.22000000
C15     51.06000000     67.97000000     52.28000000
O16     50.24000000     67.19000000     52.77000000
C17     50.73000000     69.33000000     51.70000000
C18     51.55000000     69.70000000     50.46000000
C19     51.60000000     71.22000000     50.31000000
C20     50.25000000     71.84000000     49.95000000
C21     49.92000000     71.58000000     48.47000000
C22     48.74000000     72.41000000     47.97000000
C23     48.60000000     72.23000000     46.46000000
C24     47.44000000     73.00000000     45.88000000
C25     46.56000000     73.73000000     46.57000000
C26     45.41000000     74.50000000     45.99000000
C27     45.31000000     75.90000000     46.59000000
C28     45.03000000     75.82000000     48.09000000
C29     44.86000000     77.21000000     48.70000000
C30     43.62000000     77.89000000     48.12000000
C31     43.40000000     79.28000000     48.73000000
C32     42.20000000     79.97000000     48.09000000
C33     40.91000000     79.22000000     48.39000000
C34     53.50000000     66.93000000     54.39000000
OS35     52.62000000     67.47000000     55.40000000
C36     52.63000000     68.83000000     55.54000000
O37     53.52000000     69.57000000     55.14000000
C38     51.54000000     69.23000000     56.53000000
C39     51.25000000     70.73000000     56.50000000
C40     50.45000000     71.13000000     55.26000000
C41     50.12000000     72.62000000     55.33000000
C42     49.34000000     73.11000000     54.11000000
C43     48.99000000     74.59000000     54.31000000
C44     50.28000000     75.42000000     54.41000000
C45     49.99000000     76.85000000     54.87000000
C46     49.24000000     77.66000000     53.82000000
C47     48.99000000     79.08000000     54.34000000
C48     50.31000000     79.82000000     54.55000000
C49     50.08000000     81.20000000     55.17000000
C50     49.55000000     81.08000000     56.60000000
C51     49.37000000     82.46000000     57.24000000
C52     50.71000000     83.14000000     57.47000000
 C1     51.92000000     41.27000000     56.70000000
 C2     51.96000000     39.43000000     55.15000000
 C3     53.93000000     40.72000000     55.61000000
 N4     52.71000000     40.15000000     56.19000000
 C5     52.99000000     39.27000000     57.35000000
 C6     53.80000000     37.97000000     57.15000000
OS7     55.16000000     38.22000000     56.83000000
 P8     55.66000000     37.49000000     55.53000000
OM9     54.68000000     37.84000000     54.49000000
OM10     57.03000000     37.90000000     55.32000000
OS11     55.58000000     35.98000000     55.91000000
C12     56.40000000     35.65000000     57.04000000
C13     56.14000000     34.27000000     57.68000000
OS14     54.91000000     34.15000000     58.45000000
C15     53.74000000     33.88000000     57.80000000
O16     53.20000000     34.69000000     57.04000000
C17     52.98000000     32.78000000     58.51000000
C18     51.93000000     32.15000000     57.58000000
C19     51.52000000     30.78000000     58.14000000
C20     50.47000000     30.07000000     57.30000000
C21     50.31000000     28.63000000     57.81000000
C22     49.35000000     27.80000000     56.96000000
C23     47.90000000     28.07000000     57.33000000
C24     46.94000000     27.29000000     56.47000000
C25     47.28000000     26.51000000     55.44000000
C26     46.32000000     25.74000000     54.58000000
C27     46.18000000     24.29000000     55.05000000
C28     47.51000000     23.55000000     54.91000000
C29     47.41000000     22.13000000     55.46000000
C30     46.44000000     21.28000000     54.63000000
C31     46.36000000     19.86000000     55.17000000
C32     45.37000000     19.02000000     54.36000000
C33     45.86000000     18.83000000     52.92000000
C34     57.41000000     34.04000000     58.52000000
OS35     57.60000000     32.74000000     59.10000000
C36     58.84000000     32.57000000     59.62000000
O37     59.69000000     33.46000000     59.61000000
C38     59.00000000     31.23000000     60.32000000
C39     60.48000000     30.89000000     60.50000000
C40     61.05000000     30.25000000     59.24000000
C41     60.59000000     28.79000000     59.15000000
C42     61.03000000     28.13000000     57.84000000
C43     60.70000000     26.64000000     57.86000000
C44     59.20000000     26.41000000     58.05000000
C45     58.90000000     24.92000000     58.20000000
C46     57.44000000     24.68000000     58.59000000
C47     57.18000000     23.18000000     58.78000000
C48     57.97000000     22.64000000     59.97000000
C49     57.74000000     21.14000000     60.15000000
C50     58.32000000     20.35000000     58.97000000
C51     58.11000000     18.85000000     59.16000000
C52     58.95000000     18.32000000     60.33000000
 C1     38.54000000     65.13000000     57.78000000
 C2     40.84000000     65.45000000     57.37000000
 C3     39.87000000     63.25000000     57.74000000
 N4     39.71000000     64.56000000     57.12000000
 C5     39.39000000     64.48000000     55.68000000
 C6     40.03000000     63.49000000     54.66000000
OS7     39.76000000     62.08000000     54.76000000
 P8     38.28000000     61.50000000     54.74000000
OM9     38.32000000     60.28000000     53.91000000
OM10     38.04000000     61.36000000     56.18000000
OS11     37.40000000     62.61000000     54.04000000
C12     36.29000000     63.10000000     54.82000000
C13     36.02000000     64.59000000     54.52000000
OS14     35.35000000     65.31000000     55.59000000
C15     35.90000000     66.53000000     55.87000000
O16     37.03000000     66.81000000     55.46000000
C17     35.13000000     67.26000000     56.97000000
C18     35.83000000     68.56000000     57.40000000
C19     37.05000000     68.32000000     58.29000000
C20     37.87000000     69.59000000     58.49000000
C21     39.28000000     69.27000000     58.99000000
C22     39.32000000     68.89000000     60.47000000
C23     40.75000000     68.55000000     60.90000000
C24     40.86000000     68.35000000     62.38000000
C25     39.84000000     68.42000000     63.24000000
C26     39.90000000     68.25000000     64.73000000
C27     38.96000000     69.23000000     65.43000000
C28     39.33000000     70.68000000     65.10000000
C29     38.36000000     71.68000000     65.73000000
C30     38.53000000     71.74000000     67.24000000
C31     37.59000000     72.78000000     67.85000000
C32     37.80000000     72.89000000     69.36000000
C33     39.17000000     73.48000000     69.68000000
C34     35.41000000     64.68000000     53.11000000
OS35     35.70000000     65.90000000     52.39000000
C36     36.98000000     66.12000000     51.94000000
O37     37.80000000     65.21000000     51.77000000
C38     37.21000000     67.55000000     51.47000000
C39     36.07000000     68.22000000     50.70000000
C40     34.95000000     68.82000000     51.56000000
C41     35.22000000     70.20000000     52.17000000
C42     36.04000000     70.17000000     53.47000000
C43     35.98000000     71.52000000     54.18000000
C44     34.57000000     71.73000000     54.75000000
C45     34.43000000     73.09000000     55.44000000
C46     33.02000000     73.24000000     56.02000000
C47     32.83000000     74.62000000     56.64000000
C48     32.83000000     75.71000000     55.57000000
C49     32.61000000     77.09000000     56.19000000
C50     33.81000000     77.49000000     57.06000000
C51     33.58000000     78.86000000     57.70000000
C52     33.55000000     79.96000000     56.65000000
 C1     35.24000000     51.17000000     57.21000000
 C2     36.10000000     49.03000000     57.76000000
 C3     37.35000000     50.98000000     58.34000000
 N4     36.01000000     50.41000000     58.22000000
 C5     35.35000000     50.41000000     59.55000000
 C6     34.81000000     51.74000000     60.14000000
OS7     35.81000000     52.73000000     60.34000000
 P8     35.47000000     54.15000000     59.78000000
OM9     36.80000000     54.73000000     59.51000000
OM10     34.57000000     53.95000000     58.64000000
OS11     34.74000000     54.89000000     60.96000000
C12     33.31000000     54.83000000     60.94000000
C13     32.66000000     54.77000000     62.33000000
OS14     31.21000000     54.62000000     62.30000000
C15     30.65000000     53.38000000     62.40000000
O16     31.01000000     52.47000000     61.65000000
C17     29.22000000     53.56000000     62.90000000
C18     28.36000000     52.30000000     62.86000000
C19     26.98000000     52.60000000     63.47000000
C20     26.03000000     51.40000000     63.51000000
C21     25.58000000     50.96000000     62.12000000
C22     24.60000000     49.79000000     62.16000000
C23     24.54000000     49.13000000     60.78000000
C24     23.50000000     48.07000000     60.59000000
C25     22.45000000     47.77000000     61.36000000
C26     21.48000000     46.66000000     61.05000000
C27     20.35000000     47.07000000     60.10000000
C28     19.30000000     48.00000000     60.72000000
C29     18.03000000     47.26000000     61.16000000
C30     18.20000000     46.49000000     62.47000000
C31     16.91000000     45.77000000     62.86000000
C32     17.11000000     45.01000000     64.17000000
C33     17.35000000     45.99000000     65.33000000
C34     33.10000000     56.07000000     63.02000000
OS35     33.07000000     56.11000000     64.45000000
C36     34.17000000     55.65000000     65.10000000
O37     35.20000000     55.29000000     64.51000000
C38     34.04000000     55.86000000     66.59000000
C39     32.69000000     55.39000000     67.13000000
C40     32.53000000     55.85000000     68.58000000
C41     31.20000000     55.41000000     69.19000000
C42     31.17000000     53.91000000     69.48000000
C43     29.87000000     53.54000000     70.19000000
C44     29.82000000     52.05000000     70.54000000
C45     28.50000000     51.72000000     71.23000000
C46     28.36000000     50.22000000     71.50000000
C47     27.03000000     49.93000000     72.20000000
C48     25.84000000     50.27000000     71.30000000
C49     24.52000000     50.04000000     72.03000000
C50     24.37000000     51.03000000     73.19000000
C51     23.03000000     50.83000000     73.92000000
C52     21.86000000     51.23000000     73.02000000
 C1     65.12000000     45.81000000     61.37000000
 C2     67.46000000     46.08000000     61.02000000
 C3     66.42000000     43.98000000     60.61000000
 N4     66.25000000     45.44000000     60.52000000
 C5     65.94000000     45.90000000     59.15000000
 C6     66.96000000     45.60000000     58.03000000
OS7     66.91000000     44.24000000     57.60000000
 P8     68.32000000     43.73000000     57.12000000
OM9     68.07000000     42.39000000     56.59000000
OM10     68.75000000     44.83000000     56.25000000
OS11     68.98000000     43.68000000     58.54000000
C12     69.77000000     42.50000000     58.70000000
C13     70.39000000     42.30000000     60.10000000
OS14     71.16000000     43.42000000     60.61000000
C15     70.70000000     44.05000000     61.72000000
O16     69.52000000     44.04000000     62.08000000
C17     71.76000000     45.03000000     62.19000000
C18     71.44000000     45.69000000     63.53000000
C19     72.60000000     46.61000000     63.89000000
C20     72.50000000     47.23000000     65.28000000
C21     73.78000000     48.00000000     65.59000000
C22     73.79000000     48.48000000     67.04000000
C23     72.75000000     49.57000000     67.26000000
C24     72.68000000     49.96000000     68.70000000
C25     73.43000000     49.47000000     69.70000000
C26     73.32000000     49.87000000     71.14000000
C27     74.08000000     51.16000000     71.46000000
C28     75.59000000     50.93000000     71.42000000
C29     76.33000000     52.26000000     71.61000000
C30     76.09000000     52.85000000     73.00000000
C31     76.75000000     54.22000000     73.13000000
C32     78.28000000     54.11000000     73.06000000
C33     78.84000000     53.44000000     74.31000000
C34     71.28000000     41.05000000     59.98000000
OS35     70.61000000     39.79000000     60.14000000
C36     71.49000000     38.76000000     60.30000000
O37     72.70000000     38.88000000     60.15000000
C38     70.80000000     37.45000000     60.68000000
C39     71.47000000     36.89000000     61.93000000
C40     71.05000000     37.70000000     63.15000000
C41     72.05000000     37.58000000     64.31000000
C42     71.57000000     38.41000000     65.50000000
C43     72.71000000     38.70000000     66.47000000
C44     73.71000000     39.66000000     65.81000000
C45     74.87000000     39.99000000     66.76000000
C46     75.89000000     40.90000000     66.08000000
C47     77.05000000     41.20000000     67.02000000
C48     77.83000000     39.92000000     67.34000000
C49     78.95000000     40.19000000     68.35000000
C50     79.66000000     38.89000000     68.73000000
C51     80.76000000     39.14000000     69.76000000
C52     81.45000000     37.84000000     70.14000000
 C1     70.78000000     56.33000000     53.83000000
 C2     69.11000000     56.89000000     52.25000000
 C3     69.60000000     54.63000000     52.70000000
 N4     70.19000000     55.96000000     52.54000000
 C5     71.28000000     55.99000000     51.54000000
 C6     71.04000000     55.64000000     50.05000000
OS7     70.36000000     54.40000000     49.83000000
 P8     71.25000000     53.15000000     49.50000000
OM9     70.24000000     52.07000000     49.45000000
OM10     72.12000000     53.42000000     48.36000000
OS11     72.07000000     52.98000000     50.83000000
C12     73.48000000     53.03000000     50.62000000
C13     74.32000000     53.56000000     51.78000000
OS14     74.73000000     54.93000000     51.51000000
C15     74.75000000     55.82000000     52.54000000
O16     73.93000000     55.75000000     53.46000000
C17     75.39000000     57.11000000     52.07000000
C18     74.33000000     58.19000000     51.88000000
C19     74.95000000     59.54000000     51.52000000
C20     73.87000000     60.63000000     51.51000000
C21     74.49000000     62.02000000     51.33000000
C22     73.44000000     63.11000000     51.54000000
C23     74.06000000     64.50000000     51.42000000
C24     75.13000000     64.75000000     52.45000000
C25     74.99000000     65.40000000     53.61000000
C26     76.09000000     65.62000000     54.61000000
C27     76.55000000     67.08000000     54.65000000
C28     77.76000000     67.23000000     55.58000000
C29     78.24000000     68.68000000     55.65000000
C30     77.28000000     69.55000000     56.47000000
C31     77.77000000     71.00000000     56.52000000
C32     76.88000000     71.85000000     57.43000000
C33     77.07000000     71.45000000     58.90000000
C34     75.50000000     52.59000000     51.87000000
OS35     76.06000000     52.37000000     53.18000000
C36     77.31000000     52.88000000     53.38000000
O37     77.98000000     53.45000000     52.52000000
C38     77.80000000     52.49000000     54.76000000
C39     79.07000000     53.23000000     55.19000000
C40     79.40000000     52.79000000     56.61000000
C41     80.69000000     53.37000000     57.19000000
C42     80.57000000     54.85000000     57.52000000
C43     81.79000000     55.33000000     58.31000000
C44     83.08000000     55.21000000     57.49000000