6100
Energy = -96821.19098128 au
 C1     53.80000000     45.51000000     59.67000000
 C2     53.36000000     43.96000000     61.43000000
 C3     53.74000000     43.18000000     59.20000000
 N4     54.13000000     44.18000000     60.20000000
 C5     55.58000000     44.01000000     60.46000000
 C6     56.30000000     44.89000000     61.51000000
OS7     56.55000000     46.24000000     61.13000000
 P8     55.95000000     47.32000000     62.12000000
OM9     56.13000000     48.60000000     61.43000000
OM10     54.59000000     46.85000000     62.39000000
OS11     56.83000000     47.22000000     63.42000000
C12     56.18000000     46.75000000     64.61000000
C13     56.57000000     45.32000000     65.03000000
OS14     55.78000000     44.81000000     66.14000000
C15     55.29000000     43.55000000     65.96000000
O16     55.25000000     43.03000000     64.84000000
C17     54.67000000     42.97000000     67.22000000
C18     55.36000000     41.65000000     67.59000000
C19     54.61000000     40.84000000     68.65000000
C20     53.36000000     40.17000000     68.05000000
C21     52.58000000     39.31000000     69.05000000
C22     51.24000000     38.91000000     68.43000000
C23     50.27000000     38.27000000     69.43000000
C24     50.50000000     36.81000000     69.62000000
C25     49.54000000     35.88000000     69.75000000
C26     49.74000000     34.40000000     69.92000000
C27     49.58000000     33.89000000     71.35000000
C28     50.68000000     34.42000000     72.28000000
C29     50.60000000     33.77000000     73.66000000
C30     50.97000000     32.29000000     73.57000000
C31     50.97000000     31.63000000     74.96000000
C32     51.35000000     30.16000000     74.86000000
C33     52.81000000     30.00000000     74.42000000
C34     58.10000000     45.32000000     65.23000000
OS35     58.69000000     44.07000000     65.65000000
C36     58.63000000     43.01000000     64.81000000
O37     58.60000000     43.11000000     63.57000000
C38     58.89000000     41.68000000     65.52000000
C39     60.08000000     41.64000000     66.48000000
C40     59.73000000     42.13000000     67.89000000
C41     60.70000000     41.53000000     68.90000000
C42     60.34000000     41.95000000     70.33000000
C43     60.91000000     40.94000000     71.33000000
C44     62.43000000     40.88000000     71.30000000
C45     62.91000000     39.71000000     72.16000000
C46     62.56000000     39.93000000     73.63000000
C47     62.81000000     38.67000000     74.46000000
C48     64.29000000     38.31000000     74.51000000
C49     64.51000000     37.05000000     75.35000000
C50     63.88000000     35.83000000     74.67000000
C51     64.04000000     34.58000000     75.55000000
C52     65.51000000     34.21000000     75.72000000
 C1     68.23000000     53.66000000     53.24000000
 C2     67.65000000     52.42000000     55.22000000
 C3     67.76000000     51.35000000     53.05000000
 N4     68.34000000     52.37000000     53.93000000
 C5     69.77000000     52.04000000     54.07000000
 C6     70.66000000     52.63000000     55.19000000
OS7     70.81000000     54.04000000     55.25000000
 P8     71.82000000     54.72000000     54.24000000
OM9     71.04000000     54.74000000     53.00000000
OM10     72.21000000     55.95000000     54.93000000
OS11     73.00000000     53.69000000     54.12000000
C12     74.05000000     53.88000000     55.07000000
C13     75.14000000     52.79000000     55.06000000
OS14     75.89000000     52.78000000     56.29000000
C15     76.15000000     51.56000000     56.85000000
O16     75.59000000     50.53000000     56.47000000
C17     77.01000000     51.72000000     58.09000000
C18     76.47000000     50.87000000     59.24000000
C19     76.85000000     51.46000000     60.59000000
C20     75.97000000     50.85000000     61.68000000
C21     76.22000000     51.47000000     63.05000000
C22     75.37000000     50.79000000     64.13000000
C23     75.70000000     51.36000000     65.51000000
C24     77.17000000     51.26000000     65.76000000
C25     77.96000000     52.19000000     66.33000000
C26     79.44000000     52.05000000     66.50000000
C27     79.83000000     51.30000000     67.78000000
C28     79.55000000     52.12000000     69.04000000
C29     80.07000000     51.34000000     70.25000000
C30     81.57000000     51.08000000     70.09000000
C31     82.09000000     50.16000000     71.19000000
C32     83.56000000     49.81000000     70.94000000
C33     84.08000000     48.83000000     72.00000000
C34     75.95000000     53.00000000     53.76000000
OS35     77.00000000     52.06000000     53.44000000
C36     78.24000000     52.35000000     53.92000000
O37     78.57000000     53.44000000     54.39000000
C38     79.24000000     51.27000000     53.51000000
C39     79.91000000     50.55000000     54.67000000
C40     79.04000000     49.43000000     55.26000000
C41     79.79000000     48.53000000     56.24000000
C42     79.68000000     48.94000000     57.71000000
C43     81.03000000     49.37000000     58.31000000
C44     81.32000000     50.84000000     58.04000000
C45     82.79000000     51.18000000     58.26000000
C46     83.06000000     52.65000000     57.92000000
C47     84.56000000     52.92000000     57.86000000
C48     85.17000000     52.22000000     56.65000000
C49     86.68000000     52.43000000     56.58000000
C50     87.38000000     51.69000000     57.72000000
C51     88.90000000     51.87000000     57.64000000
C52     89.45000000     51.18000000     56.39000000
 C1     68.51000000     61.67000000     54.83000000
 C2     66.56000000     60.34000000     54.90000000
 C3     68.61000000     59.44000000     54.07000000
 N4     67.77000000     60.64000000     54.12000000
 C5     67.50000000     61.12000000     52.74000000
 C6     66.54000000     60.36000000     51.80000000
OS7     66.78000000     58.96000000     51.63000000
 P8     67.65000000     58.56000000     50.37000000
OM9     67.25000000     57.15000000     50.19000000
OM10     67.38000000     59.59000000     49.36000000
OS11     69.10000000     58.69000000     50.99000000
C12     69.99000000     59.66000000     50.40000000
C13     71.44000000     59.60000000     50.94000000
OS14     71.66000000     59.96000000     52.35000000
C15     71.53000000     61.24000000     52.82000000
O16     70.56000000     61.95000000     52.54000000
C17     72.28000000     61.36000000     54.14000000
C18     72.20000000     62.79000000     54.69000000
C19     73.28000000     63.05000000     55.74000000
C20     73.00000000     62.41000000     57.10000000
C21     72.36000000     63.42000000     58.06000000
C22     72.27000000     62.87000000     59.48000000
C23     71.82000000     63.95000000     60.47000000
C24     71.78000000     63.47000000     61.89000000
C25     70.81000000     63.73000000     62.78000000
C26     70.74000000     63.28000000     64.21000000
C27     70.69000000     64.44000000     65.20000000
C28     72.01000000     65.21000000     65.24000000
C29     73.11000000     64.39000000     65.91000000
C30     74.45000000     65.10000000     65.84000000
C31     75.54000000     64.30000000     66.56000000
C32     76.90000000     64.98000000     66.43000000
C33     77.40000000     64.91000000     64.98000000
C34     72.36000000     60.25000000     49.89000000
OS35     72.70000000     61.64000000     50.03000000
C36     73.97000000     61.96000000     49.63000000
O37     74.59000000     61.37000000     48.76000000
C38     74.34000000     63.34000000     50.16000000
C39     75.67000000     63.30000000     50.92000000
C40     75.53000000     62.50000000     52.22000000
C41     76.79000000     62.59000000     53.09000000
C42     76.66000000     61.70000000     54.33000000
C43     77.86000000     61.87000000     55.26000000
C44     77.82000000     63.23000000     55.97000000
C45     79.13000000     63.50000000     56.71000000
C46     79.12000000     64.85000000     57.41000000
C47     80.53000000     65.23000000     57.86000000
C48     81.40000000     65.52000000     56.64000000
C49     82.85000000     65.80000000     57.03000000
C50     83.53000000     64.54000000     57.55000000
C51     85.01000000     64.79000000     57.84000000
C52     85.78000000     65.05000000     56.54000000
 C1     39.66000000     50.09000000     59.33000000
 C2     40.64000000     48.14000000     58.32000000
 C3     41.38000000     48.86000000     60.48000000
 N4     40.22000000     48.75000000     59.58000000
 C5     39.20000000     47.87000000     60.18000000
 C6     38.63000000     48.14000000     61.59000000
OS7     37.85000000     49.31000000     61.79000000
 P8     38.40000000     50.20000000     62.98000000
OM9     39.66000000     50.65000000     62.37000000
OM10     37.33000000     51.14000000     63.22000000
OS11     38.62000000     49.19000000     64.16000000
C12     37.48000000     48.87000000     64.97000000
C13     37.07000000     47.40000000     64.76000000
OS14     35.86000000     46.94000000     65.42000000
C15     35.26000000     45.93000000     64.74000000
O16     35.52000000     45.72000000     63.55000000
C17     34.24000000     45.17000000     65.57000000
C18     32.84000000     45.74000000     65.45000000
C19     31.75000000     44.70000000     65.73000000
C20     31.66000000     43.73000000     64.55000000
C21     30.46000000     42.79000000     64.65000000
C22     30.34000000     42.00000000     63.35000000
C23     29.02000000     41.24000000     63.25000000
C24     28.94000000     40.08000000     64.20000000
C25     28.05000000     39.07000000     64.14000000
C26     26.95000000     38.88000000     63.14000000
C27     25.65000000     38.41000000     63.80000000
C28     25.12000000     39.43000000     64.80000000
C29     23.91000000     38.88000000     65.56000000
C30     22.73000000     38.65000000     64.62000000
C31     21.52000000     38.12000000     65.39000000
C32     21.78000000     36.70000000     65.91000000
C33     20.59000000     36.18000000     66.71000000
C34     38.34000000     46.56000000     65.02000000
OS35     38.66000000     46.06000000     66.33000000
C36     38.63000000     44.70000000     66.39000000
O37     38.55000000     44.01000000     65.37000000
C38     38.85000000     44.16000000     67.79000000
C39     37.53000000     44.04000000     68.55000000
C40     36.61000000     42.97000000     67.95000000
C41     35.31000000     42.89000000     68.75000000
C42     34.36000000     41.85000000     68.17000000
C43     33.12000000     41.72000000     69.06000000
C44     32.33000000     43.03000000     69.08000000
C45     31.16000000     42.97000000     70.06000000
C46     30.36000000     44.27000000     70.03000000
C47     29.29000000     44.26000000     71.13000000
C48     29.95000000     44.33000000     72.51000000
C49     28.92000000     44.23000000     73.63000000
C50     28.29000000     42.84000000     73.67000000
C51     27.27000000     42.74000000     74.81000000
C52     27.96000000     42.84000000     76.17000000
 C1     46.87000000     49.89000000     62.66000000
 C2     48.39000000     48.45000000     61.52000000
 C3     46.72000000     49.58000000     60.28000000
 N4     47.64000000     49.71000000     61.42000000
 C5     48.62000000     50.80000000     61.23000000
 C6     48.17000000     52.17000000     60.67000000
OS7     47.18000000     52.88000000     61.41000000
 P8     47.63000000     53.73000000     62.67000000
OM9     49.09000000     53.58000000     62.68000000
OM10     46.98000000     54.99000000     62.33000000
OS11     46.93000000     52.78000000     63.70000000
C12     46.09000000     53.39000000     64.68000000
C13     45.39000000     52.29000000     65.50000000
OS14     44.32000000     52.66000000     66.40000000
C15     43.38000000     51.67000000     66.52000000
O16     43.16000000     50.92000000     65.57000000
C17     42.53000000     51.80000000     67.78000000
C18     41.05000000     52.02000000     67.49000000
C19     40.25000000     50.73000000     67.25000000
C20     39.76000000     50.23000000     68.60000000
C21     38.90000000     48.96000000     68.52000000
C22     38.44000000     48.63000000     69.94000000
C23     37.47000000     47.46000000     69.98000000
C24     37.04000000     47.19000000     71.39000000
C25     37.65000000     46.37000000     72.25000000
C26     37.21000000     46.14000000     73.67000000
C27     36.00000000     47.00000000     74.03000000
C28     35.61000000     46.81000000     75.49000000
C29     34.38000000     47.66000000     75.83000000
C30     34.00000000     47.50000000     77.30000000
C31     32.75000000     48.31000000     77.63000000
C32     32.40000000     48.19000000     79.12000000
C33     33.47000000     48.86000000     79.98000000
C34     46.51000000     51.47000000     66.16000000
OS35     47.37000000     52.11000000     67.11000000
C36     48.36000000     51.30000000     67.58000000
O37     48.93000000     50.49000000     66.85000000
C38     49.02000000     51.93000000     68.80000000
C39     48.06000000     52.20000000     69.96000000
C40     47.66000000     50.90000000     70.66000000
C41     47.22000000     51.19000000     72.10000000
C42     46.72000000     49.92000000     72.79000000
C43     46.56000000     50.11000000     74.30000000
C44     45.53000000     51.18000000     74.63000000
C45     45.33000000     51.30000000     76.14000000
C46     44.38000000     52.46000000     76.47000000
C47     44.04000000     52.46000000     77.96000000
C48     45.26000000     52.78000000     78.82000000
C49     44.89000000     52.73000000     80.30000000
C50     46.08000000     53.11000000     81.18000000
C51     45.71000000     53.05000000     82.66000000
C52     46.90000000     53.43000000     83.54000000
 C1     37.19000000     52.82000000     36.51000000
 C2     38.64000000     54.67000000     36.87000000
 C3     37.59000000     54.37000000     34.77000000
 N4     38.22000000     53.67000000     35.90000000
 C5     39.36000000     52.91000000     35.37000000
 C6     40.43000000     52.29000000     36.30000000
OS7     39.92000000     51.47000000     37.36000000
 P8     40.57000000     50.04000000     37.41000000
OM9     42.00000000     50.33000000     37.59000000
OM10     39.91000000     49.36000000     38.54000000
OS11     40.23000000     49.46000000     35.99000000
C12     38.84000000     49.18000000     35.75000000
C13     38.36000000     49.53000000     34.33000000
OS14     37.04000000     50.16000000     34.30000000
C15     36.86000000     51.09000000     33.32000000
O16     37.84000000     51.72000000     32.91000000
C17     35.45000000     51.61000000     33.17000000
C18     35.51000000     52.66000000     32.05000000
C19     34.19000000     53.36000000     31.72000000
C20     33.93000000     54.61000000     32.56000000
C21     32.64000000     55.29000000     32.09000000
C22     32.37000000     56.61000000     32.81000000
C23     30.93000000     57.06000000     32.55000000
C24     30.55000000     58.31000000     33.29000000
C25     29.91000000     59.34000000     32.72000000
C26     29.48000000     60.63000000     33.34000000
C27     28.06000000     60.99000000     32.89000000
C28     27.99000000     60.95000000     31.36000000
C29     26.61000000     61.33000000     30.84000000
C30     26.41000000     62.84000000     30.87000000
C31     25.05000000     63.22000000     30.28000000
C32     24.91000000     64.73000000     30.14000000
C33     25.87000000     65.27000000     29.08000000
C34     38.61000000     48.30000000     33.44000000
OS35     39.36000000     48.58000000     32.24000000
C36     38.62000000     48.99000000     31.17000000
O37     37.45000000     48.64000000     30.99000000
C38     39.50000000     49.53000000     30.06000000
C39     38.64000000     50.18000000     28.97000000
C40     38.29000000     51.62000000     29.31000000
C41     37.40000000     52.26000000     28.25000000
C42     35.96000000     51.78000000     28.37000000
C43     35.04000000     52.51000000     27.39000000
C44     33.57000000     52.27000000     27.73000000
C45     32.66000000     52.97000000     26.72000000
C46     31.19000000     52.83000000     27.10000000
C47     30.29000000     53.38000000     25.99000000
C48     30.36000000     52.46000000     24.76000000
C49     29.54000000     53.01000000     23.60000000
C50     30.18000000     54.27000000     23.02000000
C51     29.40000000     54.77000000     21.80000000
C52     29.51000000     53.78000000     20.64000000
 C1     45.31000000     54.90000000     59.62000000
 C2     47.01000000     56.21000000     58.56000000
 C3     44.73000000     56.70000000     58.15000000
 N4     45.68000000     56.25000000     59.17000000
 C5     45.74000000     57.16000000     60.35000000
 C6     44.46000000     57.38000000     61.18000000
OS7     43.47000000     58.15000000     60.47000000
 P8     42.01000000     57.57000000     60.63000000
OM9     41.18000000     58.41000000     59.78000000
OM10     42.20000000     56.14000000     60.27000000
OS11     41.70000000     57.77000000     62.15000000
C12     41.64000000     59.13000000     62.60000000
C13     42.81000000     59.61000000     63.49000000
OS14     42.81000000     59.16000000     64.87000000
C15     43.30000000     57.94000000     65.21000000
O16     43.69000000     57.09000000     64.40000000
C17     43.32000000     57.81000000     66.72000000
C18     43.17000000     56.38000000     67.23000000
C19     43.21000000     56.40000000     68.76000000
C20     42.87000000     55.03000000     69.34000000
C21     42.96000000     55.01000000     70.86000000
C22     44.41000000     54.88000000     71.30000000
C23     44.52000000     54.85000000     72.82000000
C24     45.94000000     54.66000000     73.24000000
C25     46.77000000     55.59000000     73.73000000
C26     48.19000000     55.35000000     74.11000000
C27     48.35000000     55.02000000     75.59000000
C28     47.83000000     56.16000000     76.46000000
C29     48.19000000     55.93000000     77.93000000
C30     49.67000000     56.22000000     78.18000000
C31     49.96000000     57.72000000     78.13000000
C32     49.31000000     58.43000000     79.32000000
C33     49.58000000     59.94000000     79.27000000
C34     42.80000000     61.15000000     63.41000000
OS35     43.50000000     61.64000000     62.24000000
C36     43.60000000     63.00000000     62.13000000
O37     44.26000000     63.50000000     61.22000000
C38     42.81000000     63.79000000     63.17000000
C39     43.10000000     65.28000000     63.01000000
C40     44.42000000     65.68000000     63.67000000
C41     44.24000000     65.97000000     65.16000000
C42     45.58000000     66.23000000     65.85000000
C43     45.34000000     66.78000000     67.26000000
C44     44.59000000     65.77000000     68.13000000
C45     44.16000000     66.40000000     69.46000000
C46     45.34000000     66.58000000     70.41000000
C47     44.90000000     67.41000000     71.62000000
C48     43.78000000     66.71000000     72.40000000
C49     43.24000000     67.63000000     73.49000000
C50     42.59000000     68.86000000     72.86000000
C51     42.04000000     69.82000000     73.92000000
C52     40.83000000     69.22000000     74.63000000
 C1     56.28000000     53.94000000     39.97000000
 C2     55.83000000     56.18000000     40.73000000
 C3     58.07000000     55.39000000     40.45000000
 N4     56.71000000     55.34000000     39.91000000
 C5     56.77000000     55.80000000     38.51000000
 C6     55.52000000     56.04000000     37.64000000
OS7     54.87000000     57.27000000     37.96000000
 P8     53.87000000     57.69000000     36.82000000
OM9     53.00000000     56.51000000     36.66000000
OM10     53.36000000     58.96000000     37.31000000
OS11     54.93000000     57.91000000     35.68000000
C12     55.21000000     59.29000000     35.42000000
C13     56.70000000     59.65000000     35.40000000
OS14     56.94000000     61.03000000     35.00000000
C15     57.85000000     61.73000000     35.73000000
O16     58.21000000     61.39000000     36.86000000
C17     58.17000000     63.07000000     35.09000000
C18     58.33000000     64.15000000     36.16000000
C19     59.13000000     65.32000000     35.62000000
C20     60.60000000     64.92000000     35.49000000
C21     61.43000000     66.05000000     34.88000000
C22     62.92000000     65.71000000     34.90000000
C23     63.43000000     65.65000000     36.35000000
C24     64.92000000     65.57000000     36.42000000
C25     65.72000000     66.65000000     36.40000000
C26     67.21000000     66.70000000     36.48000000
C27     67.66000000     67.88000000     37.34000000
C28     67.04000000     69.17000000     36.80000000
C29     67.54000000     70.42000000     37.53000000
C30     68.98000000     70.73000000     37.13000000
C31     69.45000000     72.05000000     37.75000000
C32     70.88000000     72.38000000     37.30000000
C33     71.34000000     73.72000000     37.88000000
C34     57.35000000     58.64000000     34.44000000
OS35     58.65000000     58.17000000     34.85000000
C36     59.19000000     57.35000000     33.91000000
O37     58.61000000     57.07000000     32.87000000
C38     60.53000000     56.79000000     34.34000000
C39     61.26000000     56.14000000     33.16000000
C40     62.00000000     57.19000000     32.33000000
C41     62.77000000     56.54000000     31.18000000
C42     63.94000000     57.43000000     30.78000000
C43     63.50000000     58.74000000     30.12000000
C44     64.68000000     59.71000000     30.08000000
C45     64.37000000     60.98000000     29.29000000
C46     65.49000000     61.99000000     29.49000000
C47     65.39000000     63.16000000     28.51000000
C48     65.78000000     62.70000000     27.10000000
C49     65.79000000     63.87000000     26.12000000
C50     66.19000000     63.40000000     24.72000000
C51     66.24000000     64.56000000     23.73000000
C52     66.62000000     64.08000000     22.33000000
 C1     46.75000000     53.28000000     31.70000000
 C2     47.48000000     54.85000000     33.33000000
 C3     45.42000000     53.72000000     33.65000000
 N4     46.79000000     53.57000000     33.14000000
 C5     47.48000000     52.55000000     33.95000000
 C6     46.88000000     51.12000000     33.90000000
OS7     46.92000000     50.30000000     35.07000000
 P8     45.54000000     50.21000000     35.84000000
OM9     45.89000000     49.47000000     37.06000000
OM10     45.08000000     51.59000000     35.94000000
OS11     44.72000000     49.34000000     34.80000000
C12     43.41000000     49.82000000     34.46000000
C13     43.33000000     50.49000000     33.07000000
OS14     42.07000000     51.04000000     32.65000000
C15     41.97000000     52.39000000     32.75000000
O16     42.35000000     52.97000000     33.77000000
C17     41.01000000     52.95000000     31.72000000
C18     40.40000000     54.26000000     32.18000000
C19     39.63000000     54.94000000     31.05000000
C20     40.61000000     55.69000000     30.15000000
C21     39.86000000     56.41000000     29.03000000
C22     40.72000000     57.51000000     28.41000000
C23     41.02000000     58.59000000     29.45000000
C24     41.71000000     59.76000000     28.83000000
C25     41.11000000     60.91000000     28.49000000
C26     41.74000000     62.10000000     27.83000000
C27     40.94000000     62.53000000     26.60000000
C28     40.84000000     61.39000000     25.59000000
C29     40.00000000     61.78000000     24.37000000
C30     40.72000000     62.81000000     23.51000000
C31     39.91000000     63.14000000     22.26000000
C32     40.67000000     64.13000000     21.37000000
C33     41.93000000     63.49000000     20.79000000
C34     43.86000000     49.49000000     32.03000000
OS35     45.02000000     50.01000000     31.35000000
C36     45.52000000     49.24000000     30.35000000
O37     45.68000000     48.03000000     30.50000000
C38     46.43000000     50.14000000     29.53000000
C39     47.31000000     49.40000000     28.52000000
C40     46.49000000     48.79000000     27.39000000
C41     47.39000000     48.41000000     26.22000000
C42     47.99000000     49.67000000     25.58000000
C43     47.63000000     49.76000000     24.09000000
C44     46.14000000     50.02000000     23.90000000
C45     45.78000000     50.04000000     22.42000000
C46     44.27000000     50.25000000     22.22000000
C47     43.94000000     50.23000000     20.73000000
C48     44.19000000     48.83000000     20.16000000
C49     44.07000000     48.83000000     18.63000000
C50     45.21000000     49.64000000     18.01000000
C51     45.15000000     49.60000000     16.49000000
C52     45.44000000     48.20000000     15.96000000
 C1     39.68000000     43.71000000     60.59000000
 C2     40.12000000     43.19000000     62.89000000
 C3     38.00000000     43.90000000     62.26000000
 N4     39.14000000     43.10000000     61.81000000
 C5     38.71000000     41.70000000     61.55000000
 C6     39.78000000     40.59000000     61.40000000
OS7     40.79000000     40.73000000     60.40000000
 P8     42.29000000     40.86000000     60.90000000
OM9     43.08000000     40.10000000     59.92000000
OM10     42.52000000     42.29000000     61.09000000
OS11     42.31000000     40.09000000     62.28000000
C12     43.20000000     40.60000000     63.27000000
C13     42.57000000     41.33000000     64.49000000
OS14     43.53000000     41.97000000     65.38000000
C15     43.05000000     42.86000000     66.30000000
O16     41.85000000     43.04000000     66.51000000
C17     44.16000000     43.57000000     67.06000000
C18     43.76000000     43.90000000     68.50000000
C19     44.05000000     42.72000000     69.42000000
C20     45.24000000     43.00000000     70.34000000
C21     45.73000000     41.72000000     71.02000000
C22     46.87000000     41.98000000     72.00000000
C23     47.57000000     40.67000000     72.34000000
C24     46.62000000     39.65000000     72.90000000
C25     46.57000000     39.22000000     74.17000000
C26     45.61000000     38.21000000     74.71000000
C27     44.38000000     38.88000000     75.33000000
C28     44.80000000     39.76000000     76.50000000
C29     43.59000000     40.49000000     77.10000000
C30     44.03000000     41.43000000     78.22000000
C31     42.84000000     42.22000000     78.77000000
C32     43.30000000     43.18000000     79.87000000
C33     44.20000000     44.28000000     79.30000000
C34     41.56000000     40.36000000     65.14000000
OS35     40.31000000     40.32000000     64.43000000
C36     39.22000000     39.86000000     65.10000000
O37     38.16000000     39.65000000     64.51000000
C38     39.57000000     39.39000000     66.50000000
C39     38.32000000     39.16000000     67.34000000
C40     38.68000000     38.35000000     68.58000000
C41     37.55000000     38.37000000     69.61000000
C42     37.40000000     39.79000000     70.16000000
C43     36.39000000     39.86000000     71.30000000
C44     36.93000000     39.19000000     72.56000000
C45     35.93000000     39.34000000     73.70000000
C46     36.43000000     38.68000000     74.99000000
C47     35.38000000     38.86000000     76.08000000
C48     34.11000000     38.08000000     75.72000000
C49     32.96000000     38.41000000     76.68000000
C50     32.51000000     39.86000000     76.49000000
C51     31.31000000     40.19000000     77.38000000
C52     30.07000000     39.42000000     76.93000000
 C1     31.39000000     51.45000000     47.67000000
 C2     29.64000000     50.01000000     46.89000000
 C3     29.88000000     50.38000000     49.19000000
 N4     30.00000000     51.03000000     47.88000000
 C5     29.03000000     52.14000000     47.80000000
 C6     29.24000000     53.27000000     46.76000000
OS7     29.21000000     52.91000000     45.39000000
 P8     28.92000000     54.18000000     44.48000000
OM9     29.72000000     55.24000000     45.08000000
OM10     29.13000000     53.80000000     43.08000000
OS11     27.38000000     54.32000000     44.79000000
C12     26.58000000     53.27000000     44.24000000
C13     25.94000000     52.39000000     45.33000000
OS14     25.34000000     51.15000000     44.87000000
C15     26.09000000     50.01000000     44.88000000
O16     27.32000000     50.02000000     44.91000000
C17     25.22000000     48.78000000     44.65000000
C18     24.25000000     48.98000000     43.48000000
C19     23.11000000     47.96000000     43.46000000
C20     23.58000000     46.54000000     43.14000000
C21     22.39000000     45.59000000     43.04000000
C22     22.81000000     44.14000000     42.75000000
C23     23.30000000     43.95000000     41.31000000
C24     22.22000000     44.23000000     40.31000000
C25     21.83000000     43.47000000     39.27000000
C26     20.74000000     43.85000000     38.32000000
C27     21.27000000     44.60000000     37.10000000
C28     20.21000000     45.34000000     36.27000000
C29     19.42000000     44.49000000     35.27000000
C30     18.17000000     43.83000000     35.87000000
C31     17.40000000     43.06000000     34.79000000
C32     16.24000000     42.28000000     35.41000000
C33     15.17000000     43.22000000     35.97000000
C34     25.04000000     53.35000000     46.13000000
OS35     23.64000000     53.34000000     45.82000000
C36     22.95000000     52.41000000     46.53000000
O37     23.30000000     52.06000000     47.66000000
C38     21.56000000     52.19000000     45.99000000
C39     21.18000000     50.72000000     46.17000000
C40     19.66000000     50.56000000     46.21000000
C41     19.28000000     49.08000000     46.32000000
C42     19.36000000     48.34000000     44.98000000
C43     17.96000000     47.95000000     44.50000000
C44     17.16000000     49.18000000     44.04000000