6100
Energy = -96229.14125643 au
 C1     33.30000000     43.84000000     55.06000000
 C2     31.46000000     43.48000000     56.55000000
 C3     31.35000000     42.63000000     54.37000000
 N4     31.84000000     43.76000000     55.16000000
 C5     31.12000000     44.97000000     54.71000000
 C6     31.60000000     46.38000000     55.13000000
OS7     31.79000000     46.56000000     56.53000000
 P8     30.59000000     47.21000000     57.33000000
OM9     31.24000000     47.62000000     58.57000000
OM10     30.04000000     48.18000000     56.38000000
OS11     29.71000000     45.93000000     57.56000000
C12     28.35000000     46.07000000     57.16000000
C13     27.57000000     44.78000000     57.46000000
OS14     26.55000000     44.47000000     56.48000000
C15     26.92000000     44.00000000     55.25000000
O16     28.08000000     44.00000000     54.81000000
C17     25.70000000     43.50000000     54.49000000
C18     25.71000000     43.96000000     53.04000000
C19     25.09000000     42.93000000     52.09000000
C20     23.60000000     42.68000000     52.35000000
C21     22.97000000     41.98000000     51.15000000
C22     23.57000000     40.60000000     50.90000000
C23     22.91000000     39.96000000     49.67000000
C24     23.38000000     38.56000000     49.43000000
C25     22.65000000     37.58000000     48.87000000
C26     23.10000000     36.16000000     48.65000000
C27     21.97000000     35.17000000     48.91000000
C28     21.37000000     35.38000000     50.30000000
C29     20.31000000     34.33000000     50.66000000
C30     20.97000000     33.03000000     51.11000000
C31     19.91000000     31.98000000     51.46000000
C32     20.57000000     30.71000000     52.01000000
C33     21.21000000     30.99000000     53.37000000
C34     27.11000000     44.93000000     58.93000000
OS35     26.63000000     43.76000000     59.62000000
C36     26.06000000     44.03000000     60.83000000
O37     26.08000000     45.15000000     61.34000000
C38     25.53000000     42.78000000     61.51000000
C39     26.64000000     42.11000000     62.32000000
C40     26.19000000     40.85000000     63.05000000
C41     25.34000000     41.18000000     64.28000000
C42     24.85000000     39.91000000     64.97000000
C43     23.94000000     40.26000000     66.15000000
C44     22.75000000     41.09000000     65.66000000
C45     21.76000000     41.40000000     66.79000000
C46     20.72000000     42.42000000     66.34000000
C47     19.79000000     41.87000000     65.27000000
C48     18.84000000     40.81000000     65.84000000
C49     17.89000000     40.30000000     64.77000000
C50     16.95000000     39.22000000     65.33000000
C51     16.00000000     38.71000000     64.25000000
C52     15.02000000     39.81000000     63.82000000
 C1     58.04000000     35.90000000     57.53000000
 C2     56.55000000     35.33000000     59.27000000
 C3     56.94000000     37.62000000     58.79000000
 N4     56.79000000     36.30000000     58.19000000
 C5     55.63000000     36.23000000     57.28000000
 C6     55.59000000     37.11000000     56.00000000
OS7     56.58000000     36.80000000     55.02000000
 P8     56.10000000     36.97000000     53.54000000
OM9     55.12000000     38.06000000     53.46000000
OM10     57.27000000     37.00000000     52.66000000
OS11     55.30000000     35.64000000     53.26000000
C12     56.11000000     34.48000000     53.39000000
C13     55.77000000     33.60000000     54.60000000
OS14     56.96000000     32.92000000     55.07000000
C15     57.07000000     32.64000000     56.40000000
O16     56.27000000     33.08000000     57.23000000
C17     58.48000000     32.18000000     56.71000000
C18     58.56000000     31.13000000     57.82000000
C19     59.98000000     30.57000000     57.83000000
C20     60.14000000     29.42000000     58.82000000
C21     61.56000000     28.85000000     58.70000000
C22     61.83000000     27.76000000     59.73000000
C23     63.27000000     27.25000000     59.58000000
C24     64.26000000     28.37000000     59.73000000
C25     65.43000000     28.49000000     59.09000000
C26     66.43000000     29.60000000     59.22000000
C27     67.67000000     29.19000000     60.02000000
C28     67.33000000     28.99000000     61.50000000
C29     68.53000000     28.46000000     62.29000000
C30     68.12000000     28.23000000     63.75000000
C31     69.26000000     27.60000000     64.55000000
C32     68.83000000     27.39000000     66.01000000
C33     67.69000000     26.37000000     66.09000000
C34     54.55000000     32.76000000     54.21000000
OS35     53.53000000     32.68000000     55.22000000
C36     52.46000000     31.88000000     54.94000000
O37     52.04000000     31.71000000     53.80000000
C38     51.63000000     31.65000000     56.20000000
C39     52.20000000     30.53000000     57.07000000
C40     53.42000000     30.99000000     57.87000000
C41     54.04000000     29.87000000     58.71000000
C42     55.24000000     30.42000000     59.49000000
C43     55.79000000     29.39000000     60.48000000
C44     56.46000000     28.21000000     59.79000000
C45     56.90000000     27.19000000     60.84000000
C46     57.68000000     26.03000000     60.23000000
C47     57.94000000     24.97000000     61.29000000
C48     56.63000000     24.29000000     61.69000000
C49     56.83000000     23.28000000     62.82000000
C50     57.13000000     23.98000000     64.14000000
C51     57.28000000     22.97000000     65.28000000
C52     55.95000000     22.26000000     65.55000000
 C1     67.20000000     60.03000000     55.37000000
 C2     68.10000000     57.97000000     54.46000000
 C3     68.31000000     58.42000000     56.74000000
 N4     67.41000000     58.60000000     55.60000000
 C5     66.17000000     57.85000000     55.88000000
 C6     64.85000000     58.05000000     55.08000000
OS7     63.99000000     59.16000000     55.37000000
 P8     63.42000000     59.21000000     56.84000000
OM9     62.27000000     60.10000000     56.99000000
OM10     63.37000000     57.83000000     57.34000000
OS11     64.63000000     60.01000000     57.39000000
C12     64.69000000     60.02000000     58.81000000
C13     66.14000000     59.93000000     59.28000000
OS14     66.29000000     59.11000000     60.46000000
C15     66.40000000     57.77000000     60.23000000
O16     66.44000000     57.28000000     59.10000000
C17     66.38000000     57.00000000     61.53000000
C18     67.04000000     55.64000000     61.40000000
C19     67.21000000     55.11000000     62.82000000
C20     68.16000000     53.93000000     62.93000000
C21     68.62000000     53.83000000     64.38000000
C22     69.75000000     52.83000000     64.52000000
C23     70.40000000     52.95000000     65.90000000
C24     71.16000000     54.23000000     66.07000000
C25     72.28000000     54.35000000     66.80000000
C26     73.08000000     55.59000000     67.01000000
C27     74.58000000     55.28000000     67.10000000
C28     75.38000000     56.56000000     67.35000000
C29     76.86000000     56.27000000     67.55000000
C30     77.51000000     55.76000000     66.25000000
C31     79.00000000     55.49000000     66.47000000
C32     79.66000000     54.99000000     65.19000000
C33     81.15000000     54.73000000     65.42000000
C34     66.76000000     61.34000000     59.28000000
OS35     67.01000000     61.88000000     57.96000000
C36     67.47000000     63.17000000     57.95000000
O37     67.67000000     63.83000000     58.97000000
C38     67.66000000     63.66000000     56.53000000
C39     69.00000000     64.38000000     56.38000000
C40     70.16000000     63.38000000     56.34000000
C41     71.50000000     64.12000000     56.44000000
C42     72.68000000     63.15000000     56.45000000
C43     73.92000000     63.87000000     56.97000000
C44     73.68000000     64.27000000     58.42000000
C45     74.84000000     65.07000000     59.01000000
C46     74.51000000     65.47000000     60.45000000
C47     75.66000000     66.26000000     61.09000000
C48     75.84000000     67.61000000     60.40000000
C49     76.99000000     68.38000000     61.04000000
C50     78.32000000     67.66000000     60.80000000
C51     79.48000000     68.41000000     61.45000000
C52     79.70000000     69.76000000     60.76000000
 C1     38.59000000     65.20000000     57.51000000
 C2     40.30000000     64.60000000     56.02000000
 C3     39.46000000     63.00000000     57.61000000
 N4     39.11000000     64.10000000     56.71000000
 C5     38.00000000     63.78000000     55.79000000
 C6     38.04000000     62.63000000     54.76000000
OS7     38.23000000     61.28000000     55.21000000
 P8     37.08000000     60.56000000     56.03000000
OM9     37.14000000     59.18000000     55.52000000
OM10     37.28000000     60.83000000     57.45000000
OS11     35.74000000     61.21000000     55.50000000
C12     34.85000000     61.65000000     56.53000000
C13     34.31000000     63.07000000     56.30000000
OS14     34.10000000     63.83000000     57.52000000
C15     34.68000000     65.06000000     57.45000000
O16     35.52000000     65.32000000     56.59000000
C17     34.49000000     65.96000000     58.66000000
C18     35.51000000     67.08000000     58.45000000
C19     35.89000000     67.91000000     59.67000000
C20     37.14000000     68.69000000     59.28000000
C21     37.80000000     69.49000000     60.40000000
C22     39.11000000     70.07000000     59.85000000
C23     39.84000000     70.96000000     60.86000000
C24     41.11000000     71.50000000     60.26000000
C25     42.21000000     71.92000000     60.90000000
C26     42.45000000     71.98000000     62.38000000
C27     43.37000000     73.13000000     62.77000000
C28     43.63000000     73.17000000     64.28000000
C29     42.37000000     73.60000000     65.04000000
C30     42.67000000     73.72000000     66.54000000
C31     41.47000000     74.28000000     67.31000000
C32     40.33000000     73.26000000     67.41000000
C33     40.70000000     72.11000000     68.35000000
C34     33.20000000     62.99000000     55.23000000
OS35     32.86000000     64.23000000     54.58000000
C36     33.80000000     64.80000000     53.77000000
O37     34.81000000     64.21000000     53.37000000
C38     33.37000000     66.17000000     53.26000000
C39     32.31000000     66.89000000     54.10000000
C40     32.86000000     67.54000000     55.37000000
C41     31.78000000     68.35000000     56.10000000
C42     32.37000000     68.96000000     57.38000000
C43     31.52000000     70.10000000     57.94000000
C44     30.21000000     69.63000000     58.57000000
C45     29.44000000     70.86000000     59.06000000
C46     28.11000000     70.50000000     59.73000000
C47     27.35000000     71.78000000     60.09000000
C48     26.92000000     72.51000000     58.82000000
C49     26.29000000     73.87000000     59.13000000
C50     27.33000000     74.85000000     59.67000000
C51     26.71000000     76.24000000     59.89000000
C52     26.32000000     76.88000000     58.56000000
 C1     41.17000000     52.44000000     33.60000000
 C2     43.51000000     53.01000000     33.59000000
 C3     42.61000000     51.56000000     35.26000000
 N4     42.34000000     52.74000000     34.44000000
 C5     42.01000000     53.88000000     35.32000000
 C6     42.06000000     55.32000000     34.76000000
OS7     41.20000000     55.54000000     33.66000000
 P8     41.87000000     56.53000000     32.65000000
OM9     42.08000000     57.76000000     33.41000000
OM10     43.02000000     55.71000000     32.22000000
OS11     40.75000000     56.52000000     31.56000000
C12     40.64000000     55.23000000     30.97000000
C13     39.47000000     55.00000000     30.01000000
OS14     39.53000000     53.66000000     29.42000000
C15     39.10000000     52.60000000     30.16000000
O16     38.92000000     52.64000000     31.38000000
C17     39.19000000     51.31000000     29.36000000
C18     38.74000000     51.45000000     27.91000000
C19     39.12000000     50.18000000     27.15000000
C20     38.31000000     48.97000000     27.63000000
C21     38.91000000     47.68000000     27.08000000
C22     40.22000000     47.36000000     27.81000000
C23     41.01000000     46.24000000     27.13000000
C24     40.32000000     44.91000000     27.12000000
C25     40.20000000     44.13000000     26.03000000
C26     39.54000000     42.79000000     25.95000000
C27     40.47000000     41.74000000     25.34000000
C28     40.94000000     42.08000000     23.92000000
C29     40.05000000     41.54000000     22.79000000
C30     38.79000000     42.38000000     22.53000000
C31     37.97000000     41.81000000     21.37000000
C32     36.67000000     42.59000000     21.19000000
C33     36.95000000     44.04000000     20.76000000
C34     39.57000000     56.15000000     28.99000000
OS35     38.47000000     56.42000000     28.10000000
C36     37.46000000     57.18000000     28.60000000
O37     37.34000000     57.49000000     29.78000000
C38     36.48000000     57.55000000     27.50000000
C39     35.21000000     58.20000000     28.04000000
C40     34.23000000     57.16000000     28.57000000
C41     33.72000000     56.30000000     27.41000000
C42     32.77000000     55.20000000     27.89000000
C43     32.54000000     54.21000000     26.76000000
C44     33.88000000     53.58000000     26.37000000
C45     33.76000000     52.60000000     25.20000000
C46     35.12000000     52.10000000     24.70000000
C47     35.70000000     52.94000000     23.56000000
C48     36.42000000     54.22000000     24.01000000
C49     36.86000000     55.05000000     22.80000000
C50     35.65000000     55.60000000     22.05000000
C51     36.07000000     56.42000000     20.83000000
C52     36.78000000     57.71000000     21.26000000
 C1     67.99000000     41.82000000     58.49000000
 C2     67.31000000     41.75000000     56.23000000
 C3     69.61000000     41.55000000     56.76000000
 N4     68.26000000     41.19000000     57.20000000
 C5     68.12000000     39.72000000     57.31000000
 C6     68.20000000     38.81000000     56.06000000
OS7     67.03000000     38.83000000     55.26000000
 P8     67.22000000     37.80000000     54.09000000
OM9     68.23000000     38.44000000     53.24000000
OM10     67.47000000     36.55000000     54.79000000
OS11     65.83000000     37.71000000     53.37000000
C12     65.94000000     36.66000000     52.41000000
C13     64.71000000     36.19000000     51.59000000
OS14     63.64000000     35.58000000     52.38000000
C15     62.45000000     35.26000000     51.80000000
O16     61.84000000     36.02000000     51.03000000
C17     61.73000000     34.23000000     52.66000000
C18     60.27000000     34.07000000     52.23000000
C19     59.60000000     32.96000000     53.04000000
C20     60.09000000     31.58000000     52.61000000
C21     59.59000000     30.45000000     53.50000000
C22     58.08000000     30.23000000     53.38000000
C23     57.63000000     29.22000000     54.44000000
C24     56.14000000     29.05000000     54.52000000
C25     55.53000000     27.86000000     54.59000000
C26     54.06000000     27.59000000     54.67000000
C27     53.74000000     26.71000000     55.89000000
C28     54.42000000     25.34000000     55.86000000
C29     53.64000000     24.25000000     55.12000000
C30     53.91000000     24.18000000     53.61000000
C31     53.08000000     23.08000000     52.96000000
C32     53.32000000     23.03000000     51.45000000
C33     54.73000000     22.53000000     51.12000000
C34     65.40000000     35.22000000     50.61000000
OS35     64.63000000     34.54000000     49.58000000
C36     65.41000000     33.95000000     48.64000000
O37     66.45000000     34.45000000     48.23000000
C38     64.62000000     32.93000000     47.85000000
C39     65.53000000     31.87000000     47.23000000
C40     64.67000000     30.69000000     46.77000000
C41     63.73000000     31.12000000     45.64000000
C42     62.52000000     30.19000000     45.61000000
C43     62.91000000     28.73000000     45.39000000
C44     61.67000000     27.84000000     45.54000000
C45     61.95000000     26.38000000     45.19000000
C46     62.97000000     25.74000000     46.13000000
C47     63.10000000     24.26000000     45.77000000
C48     63.60000000     24.12000000     44.33000000
C49     63.51000000     22.66000000     43.86000000
C50     63.88000000     22.56000000     42.38000000
C51     63.67000000     21.13000000     41.87000000
C52     64.64000000     20.16000000     42.55000000
 C1     58.37000000     63.10000000     44.80000000
 C2     56.20000000     63.60000000     45.67000000
 C3     57.66000000     65.30000000     44.88000000
 N4     57.60000000     64.04000000     45.61000000
 C5     58.17000000     64.24000000     46.96000000
 C6     58.49000000     63.07000000     47.92000000
OS7     59.43000000     62.14000000     47.39000000
 P8     60.73000000     61.92000000     48.26000000
OM9     60.21000000     61.66000000     49.60000000
OM10     61.52000000     60.87000000     47.61000000
OS11     61.39000000     63.34000000     48.16000000
C12     62.26000000     63.46000000     47.04000000
C13     61.75000000     64.34000000     45.90000000
OS14     62.45000000     64.07000000     44.66000000
C15     62.12000000     62.99000000     43.89000000
O16     61.35000000     62.09000000     44.24000000
C17     63.13000000     62.89000000     42.77000000
C18     62.68000000     61.92000000     41.67000000
C19     63.90000000     61.40000000     40.93000000
C20     64.82000000     62.54000000     40.50000000
C21     66.00000000     62.01000000     39.69000000
C22     67.12000000     63.06000000     39.62000000
C23     68.26000000     62.60000000     38.71000000
C24     67.91000000     62.74000000     37.26000000
C25     68.17000000     63.82000000     36.52000000
C26     67.86000000     64.05000000     35.07000000
C27     69.03000000     64.70000000     34.34000000
C28     69.41000000     66.01000000     35.02000000
C29     70.51000000     66.76000000     34.26000000
C30     69.96000000     67.42000000     33.00000000
C31     71.06000000     68.22000000     32.29000000
C32     70.51000000     68.95000000     31.07000000
C33     69.54000000     70.05000000     31.51000000
C34     61.82000000     65.79000000     46.41000000
OS35     60.73000000     66.65000000     46.01000000
C36     60.10000000     67.29000000     47.03000000
O37     59.90000000     66.70000000     48.09000000
C38     59.11000000     68.31000000     46.48000000
C39     59.70000000     69.68000000     46.18000000
C40     60.43000000     69.69000000     44.83000000
C41     60.95000000     71.09000000     44.52000000
C42     61.78000000     71.10000000     43.23000000
C43     62.36000000     72.50000000     43.01000000
C44     63.37000000     72.52000000     41.86000000
C45     64.02000000     73.90000000     41.78000000
C46     65.18000000     73.92000000     40.78000000
C47     65.87000000     75.29000000     40.84000000
C48     66.50000000     75.50000000     42.22000000
C49     67.06000000     76.91000000     42.37000000
C50     65.94000000     77.94000000     42.33000000
C51     66.47000000     79.36000000     42.57000000
C52     66.96000000     79.51000000     44.01000000
 C1     34.16000000     51.41000000     57.52000000
 C2     33.53000000     49.16000000     57.14000000
 C3     31.85000000     50.73000000     57.77000000
 N4     33.26000000     50.34000000     57.95000000
 C5     33.47000000     49.98000000     59.37000000
 C6     33.12000000     50.97000000     60.50000000
OS7     33.79000000     52.22000000     60.41000000
 P8     33.68000000     53.09000000     61.73000000
OM9     34.63000000     52.37000000     62.58000000
OM10     34.02000000     54.43000000     61.25000000
OS11     32.18000000     52.95000000     62.19000000
C12     31.21000000     53.71000000     61.47000000
C13     29.81000000     53.14000000     61.73000000
OS14     28.92000000     53.04000000     60.59000000
C15     28.90000000     51.81000000     60.01000000
O16     29.86000000     51.04000000     60.06000000
C17     27.70000000     51.61000000     59.10000000
C18     27.90000000     50.32000000     58.31000000
C19     26.58000000     49.70000000     57.87000000
C20     25.88000000     49.04000000     59.05000000
C21     24.66000000     48.24000000     58.59000000
C22     24.03000000     47.49000000     59.76000000
C23     22.85000000     46.64000000     59.30000000
C24     22.28000000     45.81000000     60.41000000
C25     21.36000000     46.22000000     61.30000000
C26     20.78000000     45.40000000     62.41000000
C27     19.39000000     44.89000000     62.03000000
C28     18.43000000     46.06000000     61.78000000
C29     17.06000000     45.58000000     61.32000000
C30     16.34000000     44.81000000     62.43000000
C31     14.94000000     44.40000000     61.99000000
C32     14.22000000     43.63000000     63.09000000
C33     13.95000000     44.52000000     64.30000000
C34     29.17000000     53.84000000     62.94000000
OS35     29.76000000     53.66000000     64.24000000
C36     29.20000000     52.76000000     65.12000000
O37     29.55000000     52.69000000     66.29000000
C38     28.07000000     51.93000000     64.52000000
C39     28.29000000     50.45000000     64.86000000
C40     27.44000000     49.52000000     63.99000000
C41     25.98000000     49.52000000     64.43000000
C42     25.17000000     48.49000000     63.65000000
C43     23.74000000     48.43000000     64.19000000
C44     23.00000000     49.73000000     63.87000000
C45     21.71000000     49.84000000     64.69000000
C46     20.97000000     51.14000000     64.38000000
C47     19.87000000     51.40000000     65.41000000
C48     20.50000000     51.74000000     66.76000000
C49     19.43000000     52.02000000     67.82000000
C50     18.67000000     50.74000000     68.18000000
C51     17.63000000     51.01000000     69.26000000
C52     18.29000000     51.40000000     70.59000000
 C1     39.68000000     46.60000000     38.93000000
 C2     38.33000000     46.75000000     40.90000000
 C3     40.06000000     48.38000000     40.49000000
 N4     39.03000000     47.53000000     39.88000000
 C5     38.01000000     48.33000000     39.17000000
 C6     38.44000000     49.18000000     37.96000000
OS7     39.08000000     50.39000000     38.35000000
 P8     39.42000000     51.28000000     37.09000000
OM9     40.29000000     52.34000000     37.63000000
OM10     39.80000000     50.43000000     35.97000000
OS11     37.97000000     51.85000000     36.90000000
C12     37.27000000     51.53000000     35.69000000
C13     35.77000000     51.35000000     36.01000000
OS14     35.40000000     49.96000000     36.28000000
C15     34.50000000     49.74000000     37.28000000
O16     34.66000000     50.16000000     38.43000000
C17     33.63000000     48.55000000     36.91000000
C18     34.01000000     47.98000000     35.54000000
C19     32.85000000     47.20000000     34.92000000
C20     32.39000000     46.06000000     35.82000000
C21     31.43000000     45.13000000     35.08000000
C22     30.92000000     44.02000000     35.98000000
C23     30.05000000     43.05000000     35.18000000
C24     29.34000000     42.04000000     36.04000000
C25     28.02000000     42.07000000     36.29000000
C26     27.22000000     41.11000000     37.10000000
C27     26.61000000     40.01000000     36.22000000
C28     25.75000000     40.64000000     35.12000000
C29     25.12000000     39.58000000     34.22000000
C30     24.00000000     38.83000000     34.94000000
C31     23.31000000     37.84000000     34.00000000
C32     22.11000000     37.18000000     34.68000000
C33     21.00000000     38.20000000     34.94000000
C34     34.96000000     51.90000000     34.83000000
OS35     33.81000000     52.63000000     35.31000000
C36     32.69000000     52.67000000     34.53000000
O37     31.75000000     53.41000000     34.85000000
C38     32.63000000     51.60000000     33.48000000
C39     31.23000000     51.64000000     32.86000000
C40     30.93000000     50.39000000     32.04000000
C41     29.52000000     50.49000000     31.47000000
C42     28.49000000     50.53000000     32.60000000
C43     27.09000000     50.71000000     32.01000000
C44     26.70000000     49.47000000     31.20000000
C45     25.35000000     49.70000000     30.52000000
C46     24.93000000     48.48000000     29.70000000
C47     23.64000000     48.79000000     28.95000000
C48     23.89000000     49.87000000     27.89000000
C49     22.59000000     50.33000000     27.24000000
C50     21.70000000     51.06000000     28.25000000
C51     20.42000000     51.57000000     27.59000000
C52     20.74000000     52.68000000     26.58000000
 C1     51.12000000     58.26000000     66.72000000
 C2     50.02000000     57.68000000     64.76000000
 C3     51.35000000     59.66000000     64.80000000
 N4     51.25000000     58.27000000     65.26000000
 C5     52.45000000     57.50000000     64.88000000
 C6     52.70000000     56.87000000     63.48000000
OS7     52.72000000     57.52000000     62.20000000
 P8     53.77000000     58.68000000     61.93000000
OM9     54.15000000     58.28000000     60.56000000
OM10     52.88000000     59.79000000     62.23000000
OS11     54.90000000     58.44000000     62.99000000
C12     55.29000000     59.67000000     63.62000000
C13     55.49000000     59.52000000     65.14000000
OS14     55.03000000     60.65000000     65.92000000
C15     54.38000000     60.30000000     67.07000000
O16     53.96000000     59.15000000     67.20000000
C17     53.87000000     61.47000000     67.89000000
C18     52.34000000     61.36000000     67.95000000
C19     51.63000000     62.46000000     68.75000000
C20     51.49000000     62.19000000     70.25000000
C21     50.11000000     61.64000000     70.61000000
C22     49.98000000     60.13000000     70.40000000
C23     48.56000000     59.64000000     70.66000000
C24     48.08000000     60.00000000     72.04000000
C25     47.55000000     59.18000000     72.96000000
C26     47.07000000     59.62000000     74.31000000
C27     45.56000000     59.80000000     74.35000000
C28     45.13000000     60.50000000     75.64000000
C29     45.46000000     59.65000000     76.87000000
C30     45.11000000     60.40000000     78.16000000
C31     43.60000000     60.63000000     78.27000000
C32     43.26000000     61.36000000     79.57000000
C33     43.81000000     62.78000000     79.56000000
C34     56.88000000     58.90000000     65.38000000
OS35     56.79000000     57.64000000     66.07000000
C36     57.00000000     57.73000000     67.41000000
O37     57.58000000     58.68000000     67.95000000
C38     56.57000000     56.46000000     68.13000000
C39     56.78000000     56.58000000     69.64000000
C40     56.25000000     55.35000000     70.37000000
C41     56.34000000     55.57000000     71.88000000
C42     55.64000000     54.46000000     72.67000000
C43     55.64000000     54.84000000     74.15000000
C44     54.78000000     56.08000000     74.35000000
C45     54.94000000     56.69000000     75.75000000
C46     54.13000000     57.98000000     75.85000000
C47     54.42000000     58.71000000     77.17000000
C48     55.87000000     59.21000000     77.19000000
C49     56.16000000     60.00000000     78.46000000
C50     57.60000000     60.52000000     78.46000000
C51     57.88000000     61.35000000     79.71000000
C52     57.06000000     62.65000000     79.69000000
 C1     54.72000000     41.96000000     57.98000000
 C2     52.37000000     41.84000000     57.49000000
 C3     53.93000000     40.34000000     56.50000000
 N4     53.59000000     41.06000000     57.73000000
 C5     53.41000000     40.16000000     58.90000000
 C6     52.43000000     38.97000000     58.83000000
OS7     52.90000000     37.97000000     57.93000000
 P8     51.79000000     37.38000000     56.98000000
OM9     51.06000000     38.58000000     56.54000000
OM10     52.55000000     36.59000000     56.02000000
OS11     50.99000000     36.54000000     58.02000000
C12     51.71000000     35.39000000     58.48000000
C13     51.38000000     35.11000000     59.96000000
OS14     52.21000000     34.08000000     60.56000000
C15     53.41000000     34.48000000     61.07000000
O16     53.89000000     35.59000000     60.84000000
C17     54.08000000     33.37000000     61.85000000
C18     55.39000000     33.83000000     62.50000000
C19     55.87000000     32.84000000     63.57000000
C20     57.23000000     33.25000000     64.14000000
C21     57.17000000     34.54000000     64.96000000
C22     56.64000000     34.34000000     66.38000000
C23     56.64000000     35.68000000     67.12000000
C24     56.20000000     35.58000000     68.55000000
C25     56.72000000     36.28000000     69.57000000
C26     56.28000000     36.18000000     71.00000000
C27     57.30000000     36.77000000     71.98000000
C28     58.61000000     36.00000000     71.94000000
C29     59.57000000     36.51000000     73.01000000
C30     59.01000000     36.19000000     74.40000000
C31     59.97000000     36.63000000     75.50000000
C32     59.38000000     36.33000000     76.88000000
C33     59.22000000     34.82000000     77.09000000
C34     49.87000000     34.80000000     59.98000000
OS35     49.08000000     35.23000000     61.10000000
C36     48.56000000     36.49000000     61.06000000
O37     48.89000000     37.36000000     60.25000000
C38     47.58000000     36.72000000     62.20000000
C39     47.76000000     35.70000000     63.32000000
C40     46.88000000     36.04000000     64.52000000
C41     47.16000000     35.06000000     65.66000000
C42     46.43000000     35.43000000     66.95000000
C43     46.90000000     34.51000000     68.08000000
C44     48.41000000     34.68000000     68.28000000