110
Energy = -12361.96733866 au
 Ni      0.37829200     -3.49932000     -1.97998000
 Ni     -0.94603500     -0.13433400     -1.22715000
 Ni      0.18279700     -4.12145000      0.56704100
 Ni     -0.05718790      4.15447000      0.02004800
 Ni     -0.30001900      2.34764000     -1.85404000
 Ni     -3.01895000      0.68295700      0.09784420
 Ni     -1.21955000     -0.79865400      1.29244000
 Ni     -0.38996100      3.47312000      2.52647000
 Ni      1.11484000     -1.01015000     -2.61493000
 Ni      3.31149000     -0.76718900      0.44885000
 Ni      0.80653000     -1.68984000     -0.06781390
 Ni      2.89410000     -2.56903000     -1.44806000
 Ni      3.87071000      1.72379000     -0.17812200
 Ni      0.92815000     -0.57815600      4.28132000
 Ni      1.14685000      0.10169800      1.78802000
 Ni      3.57788000     -0.06368820     -2.07025000
 Ni      2.09602000      3.22967000     -1.36106000
 Ni     -1.34464000     -1.95889000     -3.23348000
 Ni      2.89459000     -1.45449000      3.00459000
 Ni     -1.71027000     -2.60465000     -0.68884800
 Ni      3.55314000      0.99275300      2.40015000
 Ni      1.43318000      0.74929900     -0.70099300
 Ni     -0.65068200      0.57592600     -3.80014000
 Ni     -3.45912000     -1.14560000     -1.83639000
 Ni      1.39942000      1.88655000      3.72352000
 Ni     -1.07544000      1.01872000      3.27241000
 Ni      2.58938000     -3.30131000      1.09146000
 Ni     -1.85255000     -3.25154000      1.89083000
 Ni     -2.29755000      3.29243000     -0.41233700
 Ni      1.90206000      2.65663000      1.11839000
 Ni     -2.67881000      2.53006000      2.11532000
 Ni     -3.32929000      0.00825609      2.72316000
 Ni      1.79565000      1.52609000     -3.23602000
 Ni     -0.58832700      1.65599000      0.67919800
 Ni     -3.71386000     -1.84616000      0.67779500
 Ni     -1.49770000     -1.43516000      3.83826000
 Ni     -2.81971000      1.41569000     -2.46443000
 Ni      0.57277200     -2.42072000      2.48417000
  C      4.78765000      2.41852000      1.71061000
  O      6.04289000      2.79161000      2.05211000
  C      2.60832000     -3.30843000      2.96743000
  O      3.13347000     -4.24046000      3.71482000
  C     -3.84048000      0.91216500     -3.99264000
  O     -4.70999000      1.30217000     -4.76392000
  C     -4.40369000      2.14871000      0.68744800
  O     -5.72019000      2.45496000      0.68664300
  C     -3.37518000      1.68523000      3.59507000
  O     -4.16950000      2.07349000      4.53402000
  C     -0.13731200      0.86419300      4.89082000
  O     -0.45883600      1.21207000      6.10930000
  C     -1.71467000     -4.88794000     -0.00888375
  O     -2.15518000     -6.14536000     -0.23989100
  C     -3.83455000     -3.45194000      2.19324000
  O     -4.69027000     -4.35507000      2.65802000
  C      3.73913000     -1.54483000     -3.28779000
  O      4.68896000     -1.87185000     -4.20633000
  C      2.83959000      0.59337500      4.28850000
  O      3.52950000      0.70979000      5.38063000
  C      3.22505000      3.88542000     -0.05910890
  O      3.87066000      4.93508000      0.03430110
  C      0.88904000      5.12053000      1.56059000
  O      1.08769000      6.43325000      1.82717000
  C     -5.01433000     -0.02422850     -1.42531000
  O     -6.31007000     -0.15871500     -1.62984000
  C     -3.19389000     -1.81559000     -4.01856000
  O     -3.92902000     -2.40772000     -5.00597000
  C     -0.85573200     -0.08932930     -5.56291000
  O     -1.19997000      0.05740660     -6.76208000
  C     -2.25030000      4.23085000      1.33337000
  O     -2.96750000      5.28184000      1.58434000
  C      0.66022600     -2.13042000     -4.35998000
  O      1.12879000     -2.56455000     -5.53228000
  C      1.19509000     -2.50859000      4.88598000
  O      1.08674000     -2.84182000      6.17269000
  C     -0.45368000     -4.37047000      3.08073000
  O     -0.46729300     -5.35618000      3.99346000
  C     -1.10390000      3.41060000      4.41415000
  O     -1.34846000      4.44978000      5.17860000
  C     -0.71256400      4.96350000     -1.74473000
  O     -0.76383100      6.23095000     -2.10151000
  C      2.20629000     -4.28445000     -2.42383000
  O      2.71960000     -5.29649000     -3.14640000
  C      2.06732000      3.81742000     -3.31124000
  O      2.48789000      4.81284000     -4.06509000
  C      4.77608000     -0.15183500     -0.60906600
  O      6.04539000     -0.43723800     -0.66348200
  C      2.26340000      3.63585000      3.40323000
  O      3.00359000      4.41358000      4.18478000
  C     -1.33748000     -4.21034000     -3.02694000
  O     -1.54955000     -5.27748000     -3.79674000
  C      2.07965000     -5.14667000      0.26835900
  O      2.23916000     -6.44598000      0.56621800
  C      4.76842000     -0.88958000      2.58652000
  O      5.97925000     -1.25988000      3.09503000
  C     -0.91432900      2.75286000     -3.95331000
  O     -1.09124000      3.70372000     -4.84468000
  C      2.07705000      0.86364800     -4.98975000
  O      2.69077000      1.19207000     -6.06735000
  C      4.33759000      1.84751000     -2.50679000
  O      5.46585000      2.33334000     -3.08354000
  C     -3.78668000     -2.77146000     -0.94332800
  O     -4.60896000     -3.74050000     -1.26707000
  C     -3.39468000      3.48833000     -2.14659000
  O     -4.33549000      4.34557000     -2.55828000
  C     -5.16408000     -0.69402400      1.60400000
  O     -6.32508000     -0.99783600      2.19668000
  C      4.40014000     -3.12926000     -0.10169300
  O      5.44767000     -4.01240000     -0.19048600
  C     -3.12914000     -1.21143000      4.88316000
  O     -3.71587000     -1.56362000      5.99706000
