110
Energy = -12687.03788265 au
 Ni      0.15349000     -3.63811000     -2.46442000
 Ni     -1.35998000     -0.39768100     -1.44607000
 Ni      0.72964200     -4.22371000     -0.00560606
 Ni     -0.71114400      4.16694000     -0.61280400
 Ni     -1.33439000      2.34138000     -2.42473000
 Ni     -3.21124000      0.36756800      0.39117600
 Ni     -0.88302400     -1.03637000      1.03827000
 Ni     -0.13079600      3.38486000      1.99343000
 Ni      0.35604600     -1.16020000     -3.41118000
 Ni      3.49544000     -0.61192500     -0.85927100
 Ni      0.79863200     -1.72548000     -0.82800400
 Ni      2.63316000     -2.39908000     -2.57615000
 Ni      3.23791000      1.95039000     -1.68424000
 Ni      1.86672000     -0.39348100      3.40855000
 Ni      1.44417000      0.17458400      0.88577600
 Ni      2.70706000      0.28006200     -3.43255000
 Ni      1.07098000      3.34311000     -2.37582000
 Ni     -2.00929000     -2.26238000     -3.17660000
 Ni      3.64364000     -1.12155000      1.64697000
 Ni     -1.79533000     -3.11807000     -0.74428700
 Ni      3.86256000      1.43189000      0.85034700
 Ni      0.94126500      0.77937400     -1.59438000
 Ni     -1.86776000      0.23138500     -4.00278000
 Ni     -3.73371000     -1.75098000     -1.23636000
 Ni      1.99708000      2.12142000      2.80420000
 Ni     -0.26982300      0.90396300      2.82703000
 Ni      3.04787000     -3.14586000     -0.02166370
 Ni     -1.21511000     -3.69993000      1.83655000
 Ni     -3.06536000      2.90575000     -0.31497800
 Ni      1.58461000      2.69381000      0.19970200
 Ni     -2.46959000      2.24150000      2.19277000
 Ni     -2.56161000     -0.35660100      3.02171000
 Ni      0.59835500      1.48742000     -4.09691000
 Ni     -0.75544800      1.51204000      0.24783900
 Ni     -3.24572000     -2.09006000      1.26991000
 Ni     -0.45417800     -1.69833000      3.55544000
 Ni     -3.54177000      1.01970000     -2.04374000
 Ni      1.42365000     -2.40305000      1.69427000
  C     -3.36321000     -3.55541000      0.13014100
  O     -4.15280000     -4.58868000      0.15766400
  C      3.74150000     -3.00077000      1.63134000
  O      4.59096000     -3.66713000      2.31485000
  C     -0.83107200     -3.16681000     -4.39007000
  O     -0.84681400     -4.29317000     -5.02622000
  C     -3.68744000     -2.89754000     -2.68636000
  O     -4.57673000     -3.57881000     -3.37057000
  C      2.57576000      2.61197000     -3.43671000
  O      3.34393000      3.34878000     -4.17134000
  C     -0.79206900     -4.66861000     -1.11319000
  O     -1.33919000     -5.84895000     -1.26794000
  C      1.25805000     -3.02280000      3.70227000
  O      1.78956000     -3.97310000      4.51950000
  C     -1.38151000     -5.52925000      2.04614000
  O     -1.72821000     -6.44979000      2.90670000
  C      4.09457000     -2.37962000     -1.40234000
  O      5.31774000     -2.79204000     -1.61990000
  C     -4.51474000      1.80411000     -0.67472500
  O     -5.73435000      2.12087000     -0.67272600
  C      2.30235000      4.38514000     -0.72627500
  O      3.01775000      5.47895000     -0.45157200
  C     -1.57224000      3.36413000      3.67264000
  O     -2.01647000      4.27739000      4.55357000
  C      0.51709500     -0.58103300      5.10340000
  O      0.68691100     -0.71244700      6.42834000
  C      1.77067000      0.05318470     -5.23388000
  O      2.02412000      0.54220500     -6.41279000
  C      3.88842000      2.78660000      2.50627000
  O      4.77998000      3.50158000      3.21474000
  C      3.84443000     -0.22657700      3.61140000
  O      4.69274000     -0.34030300      4.65788000
  C     -2.72685000      3.42847000     -2.02081000
  O     -3.32655000      4.31161000     -2.74141000
  C     -3.89536000      0.04648040     -3.81466000
  O     -4.91912000      0.26537600     -4.68845000
  C     -4.32550000     -1.54585000      2.80048000
  O     -5.34958000     -1.98371000      3.55702000
  C      2.05044000     -4.18817000     -1.89761000
  O      2.60849000     -5.25374000     -2.33814000
  C     -3.08702000      4.10033000      1.31424000
  O     -4.02938000      5.01557000      1.66381000
  C     -1.17442000     -1.60755000     -4.90533000
  O     -1.42499000     -1.43935000     -6.16716000
  C      2.15740000     -4.95829000      1.27179000
  O      2.40643000     -6.24294000      1.53683000
  C     -0.19792100      4.54439000     -3.18411000
  O     -0.18290500      5.57914000     -4.01840000
  C     -1.22232000      1.99262000     -4.33673000
  O     -1.67941000      2.75580000     -5.30090000
  C     -2.13658000      0.69023000      4.54606000
  O     -2.55120000      1.00750000      5.76039000
  C      1.46841000      4.47229000      2.29200000
  O      1.73799000      5.65737000      2.83670000
  C     -4.25423000      1.24643000      2.44904000
  O     -5.48332000      1.54223000      2.93847000
  C     -2.10458000     -2.64009000      4.07664000
  O     -2.49486000     -3.12258000      5.26841000
  C      4.64727000      0.13407800     -2.70122000
  O      5.74933000     -0.15686300     -3.44918000
  C     -0.68631400      6.18767000      0.45088000
  O     -0.97807300      7.37109000      0.04480130
  C     -5.20799000     -1.08622000     -0.26256600
  O     -6.53207000     -1.17219000     -0.38092500
  C      2.08279000     -1.46396000     -4.65649000
  O      2.60841000     -2.41491000     -5.37768000
  C      4.99112000      2.36440000     -0.56392100
  O      6.19287000      2.95188000     -0.62886000
  C      4.91395000     -0.11595000      0.71918800
  O      6.20162000     -0.17779200      0.89355200
  C      1.24337000      2.08728000      4.54258000
  O      1.34917000      2.73201000      5.69737000
