110
Energy = -12116.57107907 au
 Ni     -0.08356210     -3.59240000     -2.48661000
 Ni     -1.50282000     -0.30290400     -1.36447000
 Ni      0.35338000     -4.21215000     -0.02508260
 Ni     -0.65944900      4.07086000     -0.47816600
 Ni     -1.31408000      2.24457000     -2.10246000
 Ni     -3.24822000      0.38197300      0.49577600
 Ni     -1.09162000     -0.94223200      1.08499000
 Ni     -0.19377100      3.42180000      2.11984000
 Ni      0.16085300     -1.05966000     -3.32750000
 Ni      2.90946000     -0.62235500     -0.85197900
 Ni      0.56742300     -1.70894000     -0.73821700
 Ni      2.26407000     -2.55009000     -2.66547000
 Ni      3.19500000      1.92712000     -1.68354000
 Ni      1.69657000     -0.50569900      3.47346000
 Ni      1.23310000      0.13184000      0.96517700
 Ni      2.45665000      0.17807200     -3.37984000
 Ni      1.14527000      3.22652000     -2.31290000
 Ni     -2.21233000     -2.17532000     -3.13627000
 Ni      3.37159000     -1.29765000      1.66401000
 Ni     -1.83353000     -2.82671000     -0.63658200
 Ni      3.65346000      1.27642000      0.89591500
 Ni      0.82535900      0.77539700     -1.49160000
 Ni     -1.92349000      0.30361200     -3.89872000
 Ni     -3.85246000     -1.43811000     -1.22695000
 Ni      1.98345000      2.02736000      2.72252000
 Ni     -0.44003600      0.89584600      2.85434000
 Ni      2.68829000     -3.13910000     -0.15810700
 Ni     -1.33368000     -3.46827000      1.92751000
 Ni     -2.89236000      2.95040000     -0.31114200
 Ni      1.53894000      2.69480000      0.22762700
 Ni     -2.55209000      2.29017000      2.22904000
 Ni     -2.83622000     -0.20453200      2.91019000
 Ni      0.51421000      1.38518000     -4.04895000
 Ni     -0.83653100      1.52663000      0.33765200
 Ni     -3.45865000     -2.03105000      1.15390000
 Ni     -0.68662700     -1.62690000      3.61465000
 Ni     -3.62759000      1.10265000     -2.00986000
 Ni      0.96853700     -2.33873000      1.74696000
  C      5.05863000     -0.59036800      0.24558600
  O      6.38748000     -0.63879100      0.20971800
  C     -2.44144000      4.06371000     -1.70362000
  O     -2.98205000      5.10176000     -2.23565000
  C      5.03038000      2.45340000     -0.78172500
  O      6.08435000      3.02493000     -1.28116000
  C      1.17099000      0.27990600     -5.40611000
  O      2.10556000      0.26306100     -6.29575000
  C      1.62317000     -4.64052000     -1.32421000
  O      2.09514000     -6.33155000     -1.43169000
  C      0.58599100      5.33979000     -1.64969000
  O      0.81235600      6.45339000     -2.30979000
  C     -3.09647000      4.16337000      1.86818000
  O     -3.97411000      5.13019000      2.00077000
  C      1.36477000     -2.07526000      4.60419000
  O      1.64564000     -2.51081000      5.84017000
  C      4.79346000     -2.99056000     -0.32525200
  O      5.58059000     -4.00945000     -0.32351100
  C      2.02480000     -4.09100000      1.99895000
  O      2.49417000     -5.12239000      2.69765000
  C      3.94233000     -1.88406000      3.51936000
  O      5.06991000     -2.26961000      4.03360000
  C     -3.50758000      2.07856000     -3.81050000
  O     -4.56914000      2.43102000     -4.54239000
  C     -1.70810000     -4.98164000     -2.61257000
  O     -1.77939000     -6.01244000     -3.37885000
  C     -0.65227900      3.35518000     -3.97849000
  O     -0.87025600      3.98038000     -5.15083000
  C     -1.00750000      3.34723000      3.96191000
  O     -1.33101000      4.24741000      4.87163000
  C     -0.41908000      0.28462100     -5.43000000
  O     -1.22521000      0.31490400     -6.44427000
  C     -0.41636500      0.62811900      4.88340000
  O     -0.57291600      0.96547400      6.14142000
  C     -3.55552000     -1.54534000     -4.68709000
  O     -4.31765000     -2.23990000     -5.45707000
  C     -3.49567000     -3.92386000      2.19504000
  O     -4.50252000     -4.56239000      2.75007000
  C     -3.79851000      1.44731000      3.41562000
  O     -4.74267000      1.87585000      4.30748000
  C      4.28643000     -0.41724500     -2.72391000
  O      5.43146000     -0.54414400     -3.42116000
  C      2.50663000      2.57848000     -3.47815000
  O      3.17682000      3.31243000     -4.31254000
  C     -4.79291000     -0.53150500      1.44255000
  O     -6.02611000     -0.56532700      1.80411000
  C     -0.43815100     -3.77572000      4.03374000
  O     -0.82821200     -4.82536000      4.72487000
  C     -2.53899000     -1.67347000      4.51491000
  O     -3.17200000     -1.96429000      5.64860000
  C      1.86997000      3.88552000      3.37177000
  O      2.35768000      4.70952000      4.22224000
  C     -0.15595400      5.31366000      1.54848000
  O     -0.27651600      6.61353000      1.63084000
  C     -4.84311000      2.08256000      0.04045290
  O     -6.06437000      2.57012000     -0.21735400
  C      2.68207000      1.07957000      4.44771000
  O      3.30312000      1.29589000      5.61085000
  C      0.15398700     -2.61805000     -4.35452000
  O      0.21649900     -3.05389000     -5.55853000
  C      4.53238000      2.00313000      2.49919000
  O      5.68430000      2.46253000      2.90015000
  C     -3.70041000     -3.31837000     -0.98494300
  O     -4.47650000     -4.32439000     -1.20215000
  C      2.81309000      4.14045000      0.32444100
  O      3.44840000      5.23951000      0.44503900
  C      3.45048000     -3.54330000     -3.71007000
  O      4.04470000     -4.29136000     -4.52876000
  C     -5.42978000     -0.25076700     -2.19526000
  O     -6.67113000     -0.61967100     -2.37370000
  C     -1.63776000     -5.19026000      0.72637500
  O     -1.68219000     -6.51879000      0.87540000
