110
Energy = -12108.45904204 au
 Ni      1.12745000     -3.55198000     -2.10075000
 Ni     -0.82139200     -0.65762200     -0.92718100
 Ni      1.83985000     -4.11109000      0.32657500
 Ni     -0.81002600      3.86433000     -0.07619220
 Ni     -1.17010000      1.83424000     -1.73961000
 Ni     -2.46039000     -0.26144100      1.02264000
 Ni     -0.09560680     -1.15705000      1.47761000
 Ni     -0.00349932      3.26037000      2.33311000
 Ni      0.84071100     -1.03689000     -2.91835000
 Ni      3.69598000     -0.02512870     -0.80892000
 Ni      1.53795000     -1.59630000     -0.46100700
 Ni      3.19989000     -1.99318000     -2.40909000
 Ni      3.27623000      2.43275000     -1.52595000
 Ni      2.69729000     -0.15878000      3.62207000
 Ni      1.95155000      0.35789800      1.17786000
 Ni      2.81248000      0.43524000     -3.23878000
 Ni      0.88918400      3.35136000     -2.00420000
 Ni     -1.30120000     -2.62189000     -2.60331000
 Ni      4.35524000     -0.56240800      1.63067000
 Ni     -0.48942200     -3.13828000     -0.14924200
 Ni      3.99180000      1.92206000      0.93860600
 Ni      1.22312000      0.85798700     -1.23110000
 Ni     -1.62858000     -0.15037500     -3.38637000
 Ni     -2.95551000     -2.19608000     -0.66350200
 Ni      2.44345000      2.33414000      2.77845000
 Ni      0.28811400      0.78857300      3.16747000
 Ni      3.93783000     -2.49264000      0.00579794
 Ni      0.23699900     -3.66454000      2.29815000
 Ni     -2.83206000      2.28385000      0.23358300
 Ni      1.69012000      2.84070000      0.42867800
 Ni     -2.10881000      1.73151000      2.69544000
 Ni     -1.71367000     -0.73187700      3.51952000
 Ni      0.52718600      1.33596000     -3.77251000
 Ni     -0.40975800      1.30060000      0.70482700
 Ni     -2.19581000     -2.72199000      1.80294000
 Ni      0.66791000     -1.67385000      3.95382000
 Ni     -3.27874000      0.27485700     -1.45422000
 Ni      2.39280000     -2.19185000      2.05878000
  C      1.70857000      0.27166800     -4.79726000
  O      2.19454000      0.26380400     -5.99149000
  C     -0.77199400     -1.36620000     -4.71065000
  O     -0.93031700     -1.74648000     -6.01491000
  C     -2.41538000     -4.15126000     -1.27380000
  O     -3.04755000     -5.32547000     -1.58082000
  C      0.20878000     -5.17573000     -0.57185200
  O      0.36362900     -6.52841000     -0.50741800
  C     -4.32426000     -2.91472000      0.65123500
  O     -5.39436000     -3.64477000      0.79446900
  C     -1.91953000      3.74916000     -2.54870000
  O     -2.50339000      4.65824000     -3.33632000
  C      3.46559000      3.61326000      1.78719000
  O      4.28832000      4.46909000      2.28825000
  C     -3.10311000     -2.15769000      3.51461000
  O     -3.96329000     -2.71409000      4.43860000
  C      4.31989000      0.92618400      3.01457000
  O      5.35451000      0.95199600      3.79782000
  C      2.07394000     -4.13921000      2.19920000
  O      2.59879000     -5.15448000      2.81881000
  C      5.31109000      0.63887000     -0.12840600
  O      6.49691000      1.13317000     -0.12220600
  C      3.25407000      4.48103000     -0.62932200
  O      4.25249000      5.15752000     -1.16421000
  C      2.55540000     -2.02853000      4.17811000
  O      3.17078000     -2.46777000      5.22758000
  C      4.64146000      1.63282000     -2.74796000
  O      5.50388000      1.90854000     -3.78462000
  C      3.11716000     -3.99338000     -1.31239000
  O      3.88252000     -5.03301000     -1.44181000
  C     -2.86246000      0.85285300      4.30613000
  O     -3.62596000      1.07759000      5.42319000
  C     -1.17479000      1.73520000     -4.84363000
  O     -1.38916000      2.13980000     -6.09812000
  C     -3.33559000     -2.14008000     -3.26703000
  O     -4.11595000     -2.73326000     -4.13499000
  C      2.10680000     -2.60194000     -4.32685000
  O      3.02371000     -3.24077000     -5.07855000
  C      4.55957000     -2.44648000      1.79305000
  O      5.67034000     -3.05045000      2.07657000
  C     -1.70519000     -4.64929000      1.72281000
  O     -2.10086000     -5.79591000      2.29871000
  C      1.03868000      4.96477000      1.60324000
  O      1.18948000      6.08828000      2.25577000
  C      1.57329000      3.24048000     -3.93646000
  O      1.89517000      4.16944000     -4.79106000
  C     -0.10770300     -0.16201600      4.91629000
  O     -0.12665200     -0.00132898      6.19748000
  C      1.61350000      1.80615000      4.88640000
  O      2.19711000      2.60633000      5.74083000
  C     -1.16648000      3.06607000      4.09508000
  O     -1.44268000      4.03634000      4.96935000
  C      0.52351500      5.21938000     -0.95727500
  O      0.65547400      6.48758000     -1.40608000
  C     -3.73120000      2.97371000      2.02187000
  O     -4.73297000      3.75701000      2.62839000
  C     -3.46036000      0.94285700     -3.57997000
  O     -4.46054000      1.20257000     -4.58206000
  C     -2.59179000      4.75416000      0.71945400
  O     -2.91869000      6.01034000      0.66104000
  C     -0.33399200     -4.05189000     -3.67857000
  O     -0.29482700     -5.16352000     -4.37352000
  C     -0.42063400     -3.48744000      4.14218000
  O     -0.47480000     -4.07480000      5.31573000
  C     -4.36641000      2.36829000     -1.03210000
  O     -5.55708000      3.14274000     -1.23323000
  C     -4.71686000      0.16279100      1.61753000
  O     -5.92067000      0.11328000      2.06962000
  C     -4.94742000     -0.68897800     -1.26055000
  O     -6.18472000     -0.77722900     -1.63561000
  C      4.80105000     -1.40749000     -1.51411000
  O      5.94558000     -1.67533000     -2.06405000
