110
Energy = -12546.64176263 au
 Ni     -2.20741000     -2.71097000     -2.45125000
 Ni     -0.61163700      0.56373800     -1.60095000
 Ni     -3.66210000     -2.45894000     -0.45800700
 Ni      3.03428000      2.50995000      0.48381100
 Ni      1.96155000      1.51316000     -1.74726000
 Ni     -1.45249000      2.98523000     -0.80848500
 Ni     -1.97886000      0.67094200      0.57712000
 Ni      1.50556000      2.56240000      2.83437000
 Ni      0.25063100     -1.75744000     -2.51327000
 Ni      0.70144800     -2.99706000      0.94646500
 Ni     -1.21398000     -1.62038000     -0.31498700
 Ni     -0.38454300     -3.92212000     -1.20584000
 Ni      3.19128000     -2.03383000      0.94596400
 Ni     -1.60109000     -0.56836600      4.04169000
 Ni     -0.12191300     -0.61806200      1.80734000
 Ni      2.12877000     -3.10498000     -1.24953000
 Ni      3.83281000      0.12513800     -0.34785300
 Ni     -1.76114000     -0.46890700     -3.76115000
 Ni     -0.75934000     -2.82688000      3.08662000
 Ni     -3.29944000     -0.29167100     -1.71301000
 Ni      1.87408000     -1.90057000      3.18347000
 Ni      1.25738000     -0.72972600     -0.36258400
 Ni      0.81840900      0.44802100     -3.83280000
 Ni     -2.52474000      1.89193000     -2.96542000
 Ni      0.98768400      0.41096800      4.01656000
 Ni     -0.91733600      1.73078000      2.98850000
 Ni     -1.78590000     -3.88282000      0.92484600
 Ni     -4.49584000     -0.27546600      0.63717700
 Ni      1.12894000      3.77482000     -0.83581000
 Ni      2.41907000      0.22042200      1.92238000
 Ni     -0.33977500      3.88082000      1.44523000
 Ni     -2.78469000      3.00161000      1.34621000
 Ni      2.73549000     -0.86110000     -2.58463000
 Ni      0.47831900      1.55760000      0.53662800
 Ni     -3.87676000      1.96317000     -0.67847800
 Ni     -3.42596000      0.79034000      2.70258000
 Ni     -0.02629250      2.87847000     -2.95396000
 Ni     -2.72005000     -1.60703000      2.02260000
  C      4.92621000     -0.55216800     -1.77189000
  O      6.21040000     -0.63224200     -2.09157000
  C      2.57842000     -0.51375100      4.22252000
  O      3.40568000     -0.51624600      5.19938000
  C     -4.52329000      1.97466000      1.32030000
  O     -5.62260000      2.56637000      1.68145000
  C     -3.96690000     -1.89627000     -2.53339000
  O     -4.94968000     -2.21107000     -3.32337000
  C      3.53919000     -2.98404000      2.90406000
  O      4.48605000     -3.70517000      3.51531000
  C      3.50454000      2.36600000      2.87601000
  O      4.43500000      2.86744000      3.70991000
  C      3.20072000      0.41642100     -3.94253000
  O      4.12552000      0.50423400     -4.91046000
  C     -2.30248000     -4.26932000     -1.30726000
  O     -2.76831000     -5.39709000     -1.75821000
  C     -0.17260700     -1.05938000      5.31611000
  O     -0.23495800     -1.31407000      6.64583000
  C      2.60866000     -2.63338000     -3.32279000
  O      3.28157000     -3.32528000     -4.29687000
  C      0.63343500      2.19685000     -4.68509000
  O      0.82379000      2.73764000     -5.92063000
  C      1.22778000     -4.71807000     -2.32503000
  O      1.47351000     -5.98150000     -2.71173000
  C      1.80444000     -4.60462000      0.66093300
  O      2.09859000     -5.83674000      1.05799000
  C     -3.21597000      3.76214000     -0.59103300
  O     -3.82017000      4.85224000     -0.95171000
  C      0.40099600      4.60155000     -2.40177000
  O      0.50486400      5.73558000     -3.00270000
  C      0.56607000     -0.98106300     -5.06096000
  O      0.72174600     -1.27416000     -6.33342000
  C      1.06888000      4.51549000      2.87149000
  O      1.29666000      5.56256000      3.69045000
  C      2.72360000      4.61287000      0.37644300
  O      3.40804000      5.76020000      0.36673000
  C     -1.91496000      4.01367000      2.99680000
  O     -2.60179000      4.95167000      3.71972000
  C     -4.25531000      1.33577000     -2.40608000
  O     -5.38118000      1.50683000     -3.03604000
  C      4.14360000     -3.04064000     -0.63998900
  O      5.13347000     -3.94260000     -0.75575200
  C     -2.41799000      1.16488000      4.27267000
  O     -2.90845000      1.70208000      5.34688000
  C     -4.39372000     -0.84645700      2.52666000
  O     -5.27897000     -1.22337000      3.40239000
  C      2.92708000      3.04760000     -2.43249000
  O      3.82565000      3.56313000     -3.18202000
  C     -4.00618000     -3.65624000      1.58853000
  O     -5.16088000     -4.28226000      1.34185000
  C     -0.66995900     -5.33399000      1.82836000
  O     -1.21065000     -6.50137000      2.05037000
  C     -1.97519000      3.74032000     -3.62924000
  O     -2.44870000      4.47683000     -4.65471000
  C     -2.56638000     -2.58064000      3.63226000
  O     -3.30604000     -3.33953000      4.37902000
  C      4.71452000     -0.37385300      1.60595000
  O      5.93504000     -0.33639500      2.18110000
  C     -2.97822000      0.46110000     -4.94383000
  O     -3.35302000      0.49423500     -6.20078000
  C      0.82206800     -3.79434000      3.79228000
  O      1.03385000     -4.63590000      4.83648000
  C      0.57206800      2.10631000      4.54735000
  O      0.55006000      2.60287000      5.76330000
  C      4.80320000      2.19338000     -0.29631200
  O      6.01159000      2.76596000     -0.15442600
  C     -0.75126000      5.23529000      0.08061110
  O     -1.02597000      6.54832000      0.15410100
  C     -1.09369000     -2.94509000     -4.10740000
  O     -1.10096000     -3.82252000     -5.12637000
  C     -5.71887000     -0.89902000     -1.14428000
  O     -6.98709000     -0.84596600     -0.80691700
