110
Energy = -12152.40416057 au
 Ni     -0.62525500     -3.46979000     -2.13817000
 Ni     -1.59697000     -0.12327200     -0.80771900
 Ni      0.13336900     -4.22686000      0.15559700
 Ni     -0.27319500      4.16709000      0.04572510
 Ni     -1.29185000      2.36477000     -1.56409000
 Ni     -2.86906000      0.65904900      1.28563000
 Ni     -0.81118700     -0.85466600      1.51454000
 Ni      0.46972600      3.36930000      2.38822000
 Ni     -0.34560800     -0.91188900     -2.90248000
 Ni      2.78472000     -0.71511300     -1.07657000
 Ni      0.44850000     -1.66663000     -0.57206900
 Ni      1.73960000     -2.44951000     -2.69144000
 Ni      3.10016000      1.76466000     -1.87963000
 Ni      2.32808000     -0.69158100      3.38514000
 Ni      1.52229000      0.06912650      1.00949000
 Ni      2.03624000      0.04502880     -3.44923000
 Ni      1.00131000      3.32852000     -2.09714000
 Ni     -2.70669000     -1.89006000     -2.39427000
 Ni      3.62670000     -1.49362000      1.26828000
 Ni     -1.92112000     -2.66650000     -0.07498890
 Ni      3.88472000      1.00668000      0.50703600
 Ni      0.73676500      0.80127500     -1.31759000
 Ni     -2.40804000      0.61242900     -3.17928000
 Ni     -3.97889000     -1.09775000     -0.32335300
 Ni      2.62915000      1.83687000      2.65640000
 Ni      0.25793200      0.89383100      3.17185000
 Ni      2.50750000     -3.20773000     -0.34808800
 Ni     -1.13335000     -3.37255000      2.26288000
 Ni     -2.57232000      3.19592000      0.57694600
 Ni      1.79206000      2.53018000      0.26718800
 Ni     -1.78638000      2.44582000      2.89642000
 Ni     -2.07600000     -0.07037470      3.67194000
 Ni     -0.06386780      1.60149000     -3.68251000
 Ni     -0.52684800      1.61660000      0.77334800
 Ni     -3.17298000     -1.86047000      2.03622000
 Ni      0.00186734     -1.60385000      3.88127000
 Ni     -3.70431000      1.42166000     -1.04604000
 Ni      1.25095000     -2.42497000      1.77677000
  C     -1.36811000      0.21090600     -5.17116000
  O     -1.97748000      0.30383800     -6.33017000
  C      1.77048000     -2.78978000      3.73644000
  O      2.21644000     -3.56839000      4.65741000
  C     -1.69839000      4.36731000      2.28460000
  O     -2.22822000      5.40285000      2.84143000
  C     -1.62590000     -2.84547000      4.22437000
  O     -1.89444000     -3.39629000      5.45456000
  C     -2.92974000      2.61982000     -3.19890000
  O     -3.71295000      3.31508000     -4.05262000
  C      0.47557400      2.83027000      4.22283000
  O      0.58852700      3.60036000      5.24922000
  C      0.11762100     -4.95235000      2.05957000
  O     -0.06612440     -6.12567000      2.75120000
  C      3.62525000      2.29026000     -3.87501000
  O      4.67119000      2.88583000     -4.32931000
  C     -1.60106000     -3.32060000     -3.88301000
  O     -2.06368000     -4.24460000     -4.72640000
  C     -1.10269000     -5.04689000     -1.15207000
  O     -1.26471000     -6.31985000     -1.25159000
  C     -4.13738000     -0.92108400      3.72002000
  O     -5.03610000     -1.20247000      4.64177000
  C      3.53930000     -1.36153000     -3.59087000
  O      4.39446000     -1.58448000     -4.60955000
  C     -1.37533000      5.12685000     -1.62016000
  O     -1.46605000      6.41429000     -1.56154000
  C      3.34952000      0.49376300      4.77920000
  O      4.00476000      0.40212900      5.87526000
  C      3.67337000      3.64526000      2.91056000
  O      4.34156000      4.14136000      3.87568000
  C      3.98816000      3.17329000     -0.02379080
  O      5.07720000      3.95791000      0.03047990
  C      1.38709000      4.93320000      1.25450000
  O      1.63532000      6.18767000      1.71808000
  C     -3.98683000     -0.72712500     -3.39300000
  O     -4.99540000     -1.09556000     -4.22849000
  C     -3.55169000     -3.26558000     -1.23535000
  O     -4.44121000     -4.15261000     -1.51493000
  C     -2.47702000      1.63187000      4.55963000
  O     -3.16016000      2.16529000      5.60888000
  C      4.22961000     -2.69125000     -1.31913000
  O      5.27922000     -3.46859000     -1.55377000
  C      0.03249540     -0.01321390      5.05537000
  O      0.01839950      0.07231980      6.33940000
  C      4.90822000      0.26878400      2.11273000
  O      6.19776000      0.45788600      2.44176000
  C      1.54250000      1.18470000     -5.11513000
  O      1.88243000      1.47541000     -6.36456000
  C      4.17998000     -3.23900000      2.24284000
  O      5.34509000     -3.58455000      2.65429000
  C      2.33359000      4.85666000     -1.29245000
  O      2.70059000      5.86651000     -2.00137000
  C     -4.38003000      1.80626000      1.85690000
  O     -5.52419000      2.18564000      2.35503000
  C     -5.39746000     -1.51038000      1.12476000
  O     -6.67574000     -1.80283000      1.01729000
  C      4.95313000      0.06943820     -1.30168000
  O      6.25823000      0.09303370     -1.52933000
  C      2.24624000     -4.95566000      0.77464700
  O      2.86841000     -6.12987000      0.72464100
  C      0.67620400     -1.82988000     -4.61461000
  O      0.79127800     -2.30106000     -5.86156000
  C     -4.04872000      3.95623000     -0.80174400
  O     -4.88763000      4.92551000     -0.64618100
  C     -5.55386000      0.64701200     -1.18683000
  O     -6.68411000      1.13219000     -1.66007000
  C     -3.03667000     -3.82964000      1.63972000
  O     -3.84213000     -4.73632000      2.06813000
  C      1.60705000     -4.48820000     -2.54643000
  O      2.03198000     -5.41815000     -3.40675000
  C     -0.18707800      3.53184000     -3.69812000
  O     -0.27028500      4.39039000     -4.65287000
