110
Energy = -12900.91235564 au
 Ni     -0.27722200     -3.58633000     -2.00509000
 Ni     -1.54277000     -0.18961300     -0.69510700
 Ni      0.62775200     -4.19213000      0.38319300
 Ni     -0.59876200      4.13527000      0.19721900
 Ni     -1.45821000      2.31292000     -1.50414000
 Ni     -3.17492000      0.48038500      1.44840000
 Ni     -0.69415100     -0.86991700      1.69751000
 Ni      0.17635700      3.49986000      2.52526000
 Ni     -0.04329250     -0.90077300     -2.94590000
 Ni      3.17940000     -0.43989700     -0.94956900
 Ni      0.69253500     -1.56829000     -0.42216800
 Ni      2.05145000     -2.29446000     -2.66836000
 Ni      3.09370000      2.18222000     -1.70969000
 Ni      2.55796000     -0.33633500      3.66063000
 Ni      1.58685000      0.26963000      1.22913000
 Ni      2.12832000      0.26233200     -3.43832000
 Ni      0.93160600      3.53013000     -1.91027000
 Ni     -2.49813000     -1.99007000     -2.36721000
 Ni      3.84261000     -1.07996000      1.53229000
 Ni     -1.71584000     -3.04667000      0.06342700
 Ni      3.90336000      1.45402000      0.88850600
 Ni      0.78137800      0.95487300     -1.17202000
 Ni     -2.53252000      0.43000900     -3.06745000
 Ni     -3.91846000     -1.28723000     -0.38617100
 Ni      2.57311000      2.07612000      2.78947000
 Ni      0.20728900      1.13868000      3.69271000
 Ni      3.08555000     -2.92334000     -0.16163900
 Ni     -0.87325100     -3.38859000      2.62866000
 Ni     -2.93189000      2.96972000      0.70719900
 Ni      1.72315000      2.86575000      0.51542900
 Ni     -2.09513000      2.33544000      3.04198000
 Ni     -2.12275000     -0.39760700      3.82037000
 Ni     -0.11725700      1.68886000     -3.64529000
 Ni     -0.62773100      1.63923000      0.95637500
 Ni     -3.01979000     -2.04182000      2.21079000
 Ni      0.06597830     -1.58846000      4.16257000
 Ni     -4.00465000      1.10127000     -1.01609000
 Ni      1.60551000     -2.50078000      2.30523000
  C     -4.86558000      2.25642000     -2.33504000
  O     -6.10148000      2.47196000     -2.59800000
  C      4.25609000      0.02759830      2.98582000
  O      5.35239000     -0.11172900      3.66649000
  C      1.92766000      4.46713000      2.41740000
  O      2.22435000      5.69645000      2.87590000
  C      2.96106000      3.70591000     -0.61835400
  O      3.63524000      4.80150000     -0.50094700
  C      4.23847000      2.67696000      2.17044000
  O      5.18144000      3.35671000      2.70975000
  C     -0.84168300     -4.77290000     -0.60185200
  O     -1.23560000     -6.00995000     -0.62321600
  C     -2.60510000      4.12111000     -1.32649000
  O     -3.23029000      5.04098000     -2.08028000
  C     -0.61958500      2.86372000      4.12380000
  O     -0.73626300      3.55793000      5.21689000
  C     -0.67003600      0.00090407      4.97606000
  O     -0.79227200      0.22454600      6.25161000
  C     -3.73314000      0.75606000      3.69331000
  O     -4.40949000      1.58466000      4.44651000
  C     -0.38089300      3.76231000     -3.66123000
  O     -0.45307800      4.74144000     -4.58404000
  C      5.00945000      1.48471000     -0.87863200
  O      6.34625000      1.83935000     -1.01088000
  C     -1.59084000     -1.28414000     -4.48806000
  O     -1.70018000     -1.66369000     -5.77029000
  C      0.74661200      5.38752000     -0.77148700
  O      0.66107600      6.69928000     -1.05070000
  C      3.82995000     -2.93683000     -2.23486000
  O      4.71035000     -3.67968000     -2.95629000
  C      4.03562000      0.17608900     -3.17961000
  O      5.11956000      0.13307300     -3.97325000
  C      1.72368000     -1.35166000     -4.20998000
  O      1.91123000     -1.78156000     -5.41842000
  C     -1.25863000     -2.78753000      4.22153000
  O     -1.55495000     -3.48136000      5.27181000
  C     -4.83303000      2.51093000      1.23655000
  O     -5.75880000      3.38150000      1.57069000
  C     -3.98817000     -0.84121800     -2.57683000
  O     -4.95034000     -1.14989000     -3.39537000
  C      1.98641000      1.33205000      4.42010000
  O      2.31360000      1.77222000      5.59981000
  C      2.27213000     -4.64700000     -0.48948200
  O      2.83870000     -5.90092000     -0.62844600
  C      2.59883000      3.00767000     -3.54122000
  O      3.37001000      3.79726000     -4.30683000
  C     -4.09091000     -0.76918900      3.72985000
  O     -4.94651000     -1.51218000      4.34403000
  C     -2.40077000     -3.97070000     -2.59082000
  O     -3.04050000     -4.87317000     -3.36150000
  C      0.76151800     -4.32685000      2.24509000
  O      1.08899000     -5.39934000      2.90105000
  C     -2.42780000      1.99401000     -4.28703000
  O     -3.05897000      2.36225000     -5.37693000
  C     -1.80316000      4.31106000      1.82675000
  O     -2.26037000      5.46708000      2.19755000
  C      3.40597000     -2.93564000      1.76599000
  O      4.12864000     -3.81316000      2.39475000
  C      4.54805000     -1.52327000     -0.09599500
  O      5.80505000     -1.71743000     -0.34874000
  C     -2.51897000     -3.83184000      1.79024000
  O     -3.15877000     -4.92694000      2.06510000
  C      1.90947000     -1.92783000      4.35502000
  O      2.41331000     -2.49204000      5.40894000
  C      0.92992300      1.03956000     -5.17733000
  O      1.12977000      1.39435000     -6.45499000
  C      0.82677900     -4.04804000     -3.56237000
  O      0.95277900     -5.11261000     -4.33794000
  C     -4.23549000     -3.19183000     -0.11884300
  O     -5.30988000     -3.99830000     -0.28758200
  C     -4.82797000     -0.00924927      0.53462100
  O     -6.06842000     -0.02579440      0.94286400
