110
Energy = -12802.21709985 au
 Ni      3.51383000     -0.40695600     -1.88764000
 Ni     -0.07733670     -1.04602000     -1.14370000
 Ni      4.09693000     -0.38090600      0.66378600
 Ni     -4.16581000      0.94526400     -0.38955300
 Ni     -2.40449000     -0.09904100     -2.01464000
 Ni     -1.32401000     -2.66392000      0.48210300
 Ni      0.47703800     -0.98110900      1.42844000
 Ni     -3.59280000      0.93560100      2.27087000
 Ni      1.22405000      0.53564000     -2.93671000
 Ni      1.35573000      3.45750000     -0.16278200
 Ni      1.76021000      0.59586500     -0.23584500
 Ni      3.14126000      2.21609000     -1.89022000
 Ni     -0.98795000      4.08317000     -1.12024000
 Ni      0.56312200      1.63591000      4.10052000
 Ni      0.01071180      1.57305000      1.44655000
 Ni      0.71976200      3.00786000     -2.85054000
 Ni     -2.84519000      2.47649000     -2.03490000
 Ni      1.64739000     -2.13766000     -2.91216000
 Ni      1.83380000      3.20435000      2.37563000
 Ni      2.18796000     -2.01637000     -0.24033400
 Ni     -0.37528400      4.18659000      1.60373000
 Ni     -0.54580900      1.51748000     -1.09203000
 Ni     -0.69850300     -1.13089000     -3.72208000
 Ni      0.37502100     -3.65496000     -1.29229000
 Ni     -1.75833000      2.56150000      3.23187000
 Ni     -1.42707000      0.00792476      3.52449000
 Ni      3.66623000      2.06229000      0.58931100
 Ni      2.89908000     -1.94622000      2.32829000
 Ni     -3.67089000     -1.71219000     -0.26892400
 Ni     -2.57971000      2.80369000      0.64266600
 Ni     -3.05684000     -1.66471000      2.27726000
 Ni     -0.79138900     -2.64255000      3.10419000
 Ni     -0.98079000      1.43458000     -3.75851000
 Ni     -1.81904000     -0.02848410      0.56669000
 Ni      0.88285100     -3.63710000      1.44050000
 Ni      1.04124000     -0.99229300      4.01028000
 Ni     -1.94931000     -2.74314000     -2.03474000
 Ni      2.50132000      0.60649200      2.55807000
  C      1.89992000     -4.62803000     -0.48667000
  O      2.51748000     -5.80701000     -0.68809100
  C      4.78238000      0.68906300     -0.87797600
  O      6.05048000      0.71935500     -1.15594000
  C     -3.80023000     -3.54507000     -0.95729900
  O     -4.81679000     -4.37793000     -1.23250000
  C     -1.32039000     -4.85072000     -1.13421000
  O     -1.59517000     -6.13334000     -1.34896000
  C      1.81686000     -3.98708000     -3.34135000
  O      2.26852000     -4.82173000     -4.24110000
  C     -2.87125000      3.99315000     -0.85927200
  O     -3.67437000      5.01158000     -0.95105500
  C     -5.28919000     -0.65430700     -0.95985600
  O     -6.63232000     -0.83293400     -1.02189000
  C      1.43360000      4.75210000     -2.45880000
  O      1.82061000      5.81761000     -3.14332000
  C      3.22953000      3.62725000     -0.36084300
  O      3.89796000      4.74053000     -0.35223100
  C      2.37657000      2.00246000      3.88304000
  O      3.16289000      2.23473000      4.89058000
  C     -2.23375000     -1.73677000      3.98291000
  O     -2.80248000     -2.10085000      5.09262000
  C     -2.91426000     -3.68730000      1.95563000
  O     -3.54291000     -4.83104000      2.26380000
  C      2.90717000     -0.97915700      3.94713000
  O      3.69175000     -1.14692000      4.96500000
  C     -0.09879310      0.13592200      5.01329000
  O     -0.29321400      0.00960532      6.29149000
  C     -1.98260000      0.44645500     -5.07897000
  O     -2.51559000      0.61788300     -6.28651000
  C      0.79983800     -3.13563000      4.20969000
  O      0.86966500     -3.91838000      5.34841000
  C      5.08475000     -1.30057000      2.12377000
  O      6.30889000     -1.66411000      2.44739000
  C      4.64495000      1.91598000      2.20968000
  O      5.73169000      2.44241000      2.72631000
  C      0.95721700      1.83497000     -4.40694000
  O      1.44183000      2.00375000     -5.59468000
  C     -4.40263000      2.14286000      1.07885000
  O     -5.49958000      2.79780000      1.31807000
  C      3.39266000     -0.83751300     -3.78237000
  O      4.29228000     -1.02443000     -4.77871000
  C      1.25940000      4.99739000      2.05934000
  O      1.69387000      6.01266000      2.72816000
  C     -4.48913000      1.65332000     -2.71037000
  O     -5.49879000      2.11274000     -3.43605000
  C      4.17726000     -2.37732000     -1.21409000
  O      5.14593000     -3.28018000     -1.38414000
  C      3.86848000      2.31446000     -3.63106000
  O      4.85650000      2.93932000     -4.16782000
  C     -1.40394000      3.35889000     -3.31187000
  O     -1.75247000      4.21946000     -4.21824000
  C      0.05080690      5.16875000      0.03161290
  O      0.10616500      6.45747000     -0.10069700
  C     -0.38342200      3.21889000      4.29638000
  O     -0.48148200      3.94050000      5.36228000
  C      0.73584600     -1.28449000     -4.97809000
  O      0.86544600     -1.53811000     -6.28562000
  C     -2.99804000      1.37425000      3.99899000
  O     -3.80555000      1.54216000      5.00269000
  C     -4.87566000     -0.85603500      1.95161000
  O     -6.05358000     -1.23563000      2.59138000
  C     -0.42481900     -4.95050000      2.01962000
  O     -0.35412700     -6.20029000      2.41924000
  C     -1.25922000     -3.40783000     -3.73458000
  O     -1.70103000     -4.28341000     -4.65035000
  C      3.04003000     -3.88757000      1.92506000
  O      3.77898000     -4.81969000      2.55234000
  C     -2.19333000      4.03284000      2.08962000
  O     -2.92181000      5.03909000      2.47710000
  C     -3.45227000     -1.44981000     -3.25228000
  O     -4.45653000     -1.55717000     -4.11750000
