110
Energy = -12394.06205945 au
 Ni     -1.37227000     -3.16188000      1.38497000
 Ni      0.94488300     -1.21818000     -0.90083600
 Ni     -3.36550000     -1.61750000      0.72433000
 Ni      3.76094000      2.24803000     -1.21479000
 Ni      3.38497000     -0.24797600     -0.69339900
 Ni      0.79885400     -0.41552100     -3.63176000
 Ni     -1.03312000      0.36207900     -1.57371000
 Ni      1.78454000      3.75777000     -1.98381000
 Ni      1.19696000     -2.29751000      1.72282000
 Ni     -0.19131400      1.03294000      2.93632000
 Ni     -0.86932300     -0.57485100      0.90584300
 Ni     -0.74282400     -1.52746000      3.41017000
 Ni      2.22319000      1.96794000      2.95953000
 Ni     -2.33664000      3.73368000     -0.26904600
 Ni     -0.42795900      1.95890000      0.37664100
 Ni      1.72058000     -0.45144700      3.70206000
 Ni      3.97897000      1.38479000      1.20548000
 Ni      0.51837400     -3.82889000     -0.39569000
 Ni     -2.15104000      2.68081000      2.32279000
 Ni     -1.50974000     -2.21337000     -1.08505000
 Ni      0.21492600      3.57797000      2.30834000
 Ni      1.56853000      0.37338400      1.06963000
 Ni      3.05658000     -2.79060000     -0.07498080
 Ni      0.32996200     -2.94491000     -2.87523000
 Ni      0.16084800      4.51780000     -0.01224600
 Ni     -0.76188800      3.32400000     -2.31005000
 Ni     -2.75906000      0.02109220      2.74067000
 Ni     -3.52494000     -0.71044000     -1.76538000
 Ni      3.14268000      0.65535000     -3.18541000
 Ni      2.01441000      2.87944000      0.56633400
 Ni      1.29928000      2.21122000     -3.82447000
 Ni     -1.16094000      1.37153000     -4.15206000
 Ni      3.58514000     -1.11983000      1.91504000
 Ni      1.35434000      1.28355000     -1.39336000
 Ni     -1.68577000     -1.28369000     -3.61129000
 Ni     -3.08465000      1.98109000     -2.23574000
 Ni      2.83558000     -1.90833000     -2.63417000
 Ni     -2.89808000      1.01419000      0.26350800
  C     -2.15178000      2.98193000     -3.52268000
  O     -2.71989000      3.89587000     -4.25025000
  C      0.55578000      3.92097000     -3.52647000
  O      0.48016200      4.82016000     -4.45324000
  C     -0.66659000     -4.50711000     -2.36965000
  O     -0.92589700     -5.68591000     -2.95978000
  C     -1.19791000      4.91460000     -1.26365000
  O     -1.42853000      6.13219000     -1.64269000
  C     -4.87603000     -1.75370000     -0.82597000
  O     -6.10230000     -2.25547000     -1.05267000
  C      2.43850000     -4.59691000     -0.70150300
  O      3.00522000     -5.81864000     -0.65276700
  C     -4.77710000      0.77410900      0.51377600
  O     -5.96480000      1.27295000      0.65699600
  C     -0.09708070     -1.94104000     -4.42901000
  O      0.00151277     -2.37825000     -5.64542000
  C     -2.28208000      0.05940530     -5.08445000
  O     -2.83232000      0.00185478     -6.32069000
  C      4.70785000     -2.36185000     -1.41843000
  O      5.91904000     -2.85162000     -1.72119000
  C      0.06488330      0.53960800      5.43214000
  O      0.18220400      0.94491300      6.62988000
  C      0.03801090     -2.75460000      4.59873000
  O     -0.12497900     -3.29251000      5.75430000
  C     -4.12595000      3.38698000     -0.92327200
  O     -5.12289000      4.30414000     -1.07734000
  C      3.37768000      2.67315000     -3.25125000
  O      4.28514000      3.26870000     -3.96162000
  C      1.01866000      5.47903000      1.76496000
  O      1.28047000      6.65583000      2.33391000
  C      3.12290000     -1.59758000      4.36182000
  O      3.73170000     -1.82556000      5.49829000
  C      5.26363000      0.83648700     -1.84760000
  O      6.58778000      0.96339800     -1.85420000
  C     -4.37625000     -1.38919000      2.33836000
  O     -5.50694000     -1.86244000      2.89395000
  C     -3.13806000     -2.48522000     -3.36372000
  O     -3.87154000     -3.21627000     -4.21304000
  C     -3.73984000      1.86089000      3.08053000
  O     -4.71597000      2.30442000      3.92111000
  C      4.41980000     -2.88780000      1.92813000
  O      5.58458000     -3.39532000      2.27624000
  C      1.68955000     -3.99162000      2.38313000
  O      2.14214000     -4.75570000      3.30847000
  C     -0.48137300     -5.01366000      0.78557400
  O     -0.59683400     -6.34061000      1.00192000
  C     -1.10845000      2.99070000      4.21999000
  O     -1.22858000      3.60464000      5.40944000
  C      4.53183000      3.26857000      0.95879600
  O      5.55017000      4.09981000      1.17824000
  C     -2.45033000     -3.50765000      2.90453000
  O     -2.96424000     -4.55606000      3.48354000
  C      0.74484400      0.88214000     -5.01189000
  O      1.17600000      0.80863400     -6.22680000
  C      2.59671000      1.88052000      4.80609000
  O      3.34408000      2.57588000      5.61099000
  C     -2.98935000     -3.83968000     -0.14630200
  O     -3.69245000     -4.91861000     -0.45994300
  C      2.42623000      5.12220000     -0.50862400
  O      3.16914000      6.10774000     -1.08363000
  C     -2.38365000     -0.48731400      4.57283000
  O     -3.08440000     -0.61748900      5.70132000
  C      2.18651000     -3.57868000     -3.41009000
  O      2.70712000     -4.48519000     -4.28719000
  C     -2.42321000      4.42859000      1.56650000
  O     -2.90231000      5.58723000      2.09799000
  C     -4.34399000      0.68757500     -2.84136000
  O     -5.56533000      0.83029700     -3.46226000
  C      3.42658000     -0.90162300     -4.44653000
  O      4.42962000     -1.09265000     -5.34668000
  C      4.82580000      0.84312600      2.84467000
  O      6.07920000      0.90426700      3.23916000
