110
Energy = -12502.66245839 au
 Ni     -0.04515310     -3.59286000     -1.83681000
 Ni     -1.45293000     -0.80455300      0.30238700
 Ni      2.09177000     -3.56447000     -0.31394900
 Ni     -1.92277000      3.76099000      0.80480100
 Ni     -2.79176000      1.52484000     -0.11348800
 Ni     -1.59055000     -0.26418000      2.84252000
 Ni      0.72464200     -0.76854700      1.72252000
 Ni      0.31305100      3.83252000      2.11915000
 Ni     -1.39689000     -1.38497000     -2.32931000
 Ni      1.85965000      0.41910100     -2.44192000
 Ni      0.82064900     -1.32097000     -0.82809300
 Ni      0.91581700     -1.81963000     -3.47680000
 Ni      0.60978300      2.69165000     -2.91042000
 Ni      3.99174000      0.97965600      1.45896000
 Ni      1.74006000      0.94434900      0.09523070
 Ni     -0.37494800      0.37590200     -4.01031000
 Ni     -1.72012000      3.18262000     -1.86292000
 Ni     -2.40157000     -3.12569000     -0.63273700
 Ni      4.12114000      0.49262000     -1.08171000
 Ni     -0.19993800     -3.02792000      0.78729900
 Ni      2.81158000      2.76702000     -1.52670000
 Ni     -0.44360700      0.90513900     -1.32129000
 Ni     -3.68122000     -0.82012000     -1.10970000
 Ni     -2.50019000     -2.61363000      1.96835000
 Ni      2.63535000      3.21579000      1.09685000
 Ni      1.76547000      1.58979000      2.82333000
 Ni      3.14027000     -1.79960000     -1.94132000
 Ni      1.95218000     -2.98281000      2.33480000
 Ni     -2.77095000      2.12853000      2.46361000
 Ni      0.51401600      3.31506000     -0.41270800
 Ni     -0.56629400      2.12466000      3.75535000
 Ni      0.64069600     -0.33470700      4.28542000
 Ni     -2.60172000      0.88237500     -2.85867000
 Ni     -0.52027700      1.46129000      1.23117000
 Ni     -0.28175000     -2.52807000      3.36085000
 Ni      2.87580000     -0.79670400      3.20782000
 Ni     -3.80006000     -0.30915000      1.49399000
 Ni      3.03343000     -1.29078000      0.63959000
  C     -3.66230000      3.04502000     -1.92295000
  O     -4.65187000      3.87025000     -2.29936000
  C      5.24153000     -0.50632400      0.39025400
  O      6.37685000     -0.32493400      1.03371000
  C     -1.85943000     -3.64157000      3.53883000
  O     -2.29746000     -4.65460000      4.34228000
  C      4.69229000      2.91269000      0.65111400
  O      5.62102000      3.82548000      1.02564000
  C     -4.09317000      0.82958000      3.27592000
  O     -5.12236000      1.04657000      4.15435000
  C      4.59608000      1.98888000     -2.50937000
  O      5.80367000      2.43911000     -2.88436000
  C     -1.39887000      4.98065000     -0.86344600
  O     -1.60139000      6.30271000     -1.14126000
  C      1.25645000      1.12968000      5.38517000
  O      1.49738000      1.30671000      6.68325000
  C      2.23639000      4.60592000     -1.98597000
  O      2.85543000      5.66938000     -2.46114000
  C     -1.41247000      4.39403000      2.48901000
  O     -1.74302000      5.52475000      2.99584000
  C      1.00973000     -4.65962000      2.23412000
  O      1.24758000     -5.90416000      2.66457000
  C      0.36809600     -0.42338500     -5.60958000
  O      0.18668400     -0.43231600     -6.89713000
  C      1.42173000      4.64250000      0.82590500
  O      1.70721000      5.90994000      0.81345100
  C     -3.66518000      3.19519000      1.20520000
  O     -4.71728000      3.90956000      1.36049000
  C     -5.12086000      0.44625400      0.25816400
  O     -6.45542000      0.65185500      0.37050300
  C     -4.55246000      0.17340900     -2.66102000
  O     -5.74523000      0.25811100     -3.27524000
  C     -4.31185000     -2.70198000     -0.91695600
  O     -5.45532000     -3.37922000     -1.21947000
  C      2.60591000     -3.80173000     -2.57522000
  O      3.32012000     -4.77081000     -3.19409000
  C      2.93846000     -1.06715000     -4.11514000
  O      3.71522000     -1.12564000     -5.22034000
  C     -1.71518000     -0.88277900      4.75205000
  O     -2.47334000     -1.01743000      5.84326000
  C      3.81624000     -3.65600000      0.73425400
  O      4.86275000     -4.48121000      0.80374400
  C     -1.88675000     -4.13929000     -2.42299000
  O     -2.39409000     -5.21883000     -3.08468000
  C      0.08203240     -3.36947000     -4.26221000
  O      0.16764600     -4.06495000     -5.40091000
  C     -2.09967000      2.70868000      4.76455000
  O     -2.42716000      3.12698000      5.95350000
  C     -2.56864000     -1.33349000     -4.04970000
  O     -3.21501000     -1.99924000     -4.96500000
  C      3.57288000      0.99186900      3.31629000
  O      4.39113000      1.45710000      4.21430000
  C     -0.83994800      4.02076000     -3.59975000
  O     -0.96761500      4.98589000     -4.50515000
  C      0.67142700     -5.18683000     -0.78449300
  O      0.72068100     -6.52443000     -0.94632100
  C      1.31015000     -2.23226000      4.42285000
  O      1.52317000     -2.87001000      5.53078000
  C     -4.29130000     -2.02668000      2.32968000
  O     -5.41306000     -2.61276000      2.85709000
  C      5.06643000     -1.24400000     -1.09652000
  O      5.97451000     -1.73154000     -1.86492000
  C     -2.15992000      1.83967000     -4.58374000
  O     -2.82572000      2.24895000     -5.65927000
  C      3.92919000     -2.56180000      3.24119000
  O      4.82274000     -3.03959000      4.11539000
  C      2.09308000      2.11520000     -4.11341000
  O      2.71218000      2.48464000     -5.23999000
  C     -2.30129000     -4.54432000      0.69423400
  O     -2.82116000     -5.79319000      0.83289900
  C      1.49838000      3.34703000      3.47873000
  O      2.02469000      4.11662000      4.37552000
