110
Energy = -12844.91694898 au
 Ni      0.95847700     -3.97015000     -1.11755000
 Ni     -0.27975200     -0.37390800     -1.51549000
 Ni     -0.30991900     -4.14183000      1.06895000
 Ni      0.45782400      4.09556000     -0.50329000
 Ni      0.78006100      2.01909000     -2.22692000
 Ni     -2.64762000      0.78625100     -1.31156000
 Ni     -1.63721000     -0.63154500      0.72338900
 Ni     -0.90909100      3.82220000      1.79655000
 Ni      2.32118000     -1.75572000     -1.88364000
 Ni      3.16822000     -1.05661000      2.00570000
 Ni      0.68001800     -1.80224000      0.43726800
 Ni      2.95110000     -3.12388000      0.26719700
 Ni      3.91772000      1.28929000      1.28341000
 Ni     -0.99076200     -0.10475700      4.30277000
 Ni      0.40203200      0.23946900      2.02179000
 Ni      4.19410000     -0.75751500     -0.34323200
 Ni      2.89947000      2.87772000     -0.67750100
 Ni      0.00234366     -2.48399000     -3.15845000
 Ni      1.35108000     -1.15069000      4.05086000
 Ni     -1.39590000     -2.70836000     -0.88682000
 Ni      2.41062000      1.28121000      3.37243000
 Ni      1.75194000      0.50042500     -0.17312600
 Ni      1.09198000     -0.11270100     -3.83397000
 Ni     -2.44663000     -1.20913000     -2.87828000
 Ni      0.14112600      2.23201000      3.69173000
 Ni     -2.05788000      1.58655000      2.50673000
 Ni      1.55157000     -3.25738000      2.43653000
 Ni     -2.81103000     -2.98197000      1.28500000
 Ni     -1.55479000      3.20648000     -1.89301000
 Ni      1.72544000      2.92976000      1.47618000
 Ni     -2.91682000      2.84694000      0.37285200
 Ni     -4.01937000      0.49350800      1.04685000
 Ni      3.27079000      0.66562600     -2.39899000
 Ni     -0.56036600      1.69913000      0.10602700
 Ni     -3.72938000     -1.51827000     -0.55948400
 Ni     -3.08177000     -0.91256500      2.87434000
 Ni     -1.37690000      1.02666000     -3.55063000
 Ni     -0.73996100     -2.20454000      2.85284000
  C     -3.09527000     -4.69871000      0.39839200
  O     -3.98511000     -5.57630000      0.76110400
  C     -4.92240000      1.36972000     -0.38376800
  O     -6.18854000      1.66539000     -0.74103500
  C      0.35635500     -4.43159000     -3.19448000
  O      0.39201300     -5.42966000     -4.08255000
  C      2.07145000     -4.57396000      1.12015000
  O      2.62975000     -5.69100000      1.46585000
  C     -0.22289400     -1.99624000      4.67710000
  O     -0.33938700     -2.75046000      5.72376000
  C     -0.50343600     -5.44572000     -0.50702200
  O     -0.48276700     -6.79672000     -0.56320700
  C      2.76977000      1.05970000     -4.23161000
  O      3.56110000      1.31845000     -5.33161000
  C      5.34741000      0.44191800      0.47003700
  O      6.62605000      0.52452000      0.55673100
  C      1.78268000      3.55525000     -2.94439000
  O      1.97085000      4.33637000     -3.96592000
  C      4.46125000     -2.17190000      0.87809700
  O      5.55669000     -2.76321000      1.24298000
  C     -0.13721700      0.41572100     -5.23137000
  O     -0.11685000      0.50382200     -6.57574000
  C      4.20611000     -0.95990000     -2.19939000
  O      5.22680000     -1.41983000     -2.85649000
  C     -0.36541700     -4.25234000      3.06609000
  O     -0.80619700     -5.33527000      3.81491000
  C      2.79211000     -2.26867000      3.52756000
  O      3.62980000     -2.79989000      4.36294000
  C     -2.96468000      0.83050400      4.69852000
  O     -2.99968000      1.00595000      5.94113000
  C     -3.02624000     -2.82205000      3.64933000
  O     -3.78591000     -3.30102000      4.66749000
  C     -1.59513000     -1.90312000     -4.52146000
  O     -2.12526000     -2.46480000     -5.63511000
  C      2.82680000     -3.74439000     -1.53506000
  O      3.59083000     -4.63576000     -2.05492000
  C     -2.73909000     -3.53160000     -2.10219000
  O     -3.27401000     -4.68594000     -2.49449000
  C      4.03403000      0.39356800      2.99549000
  O      5.00644000      0.29000600      3.85195000
  C     -4.57038000     -1.30866000     -2.30676000
  O     -5.72749000     -1.73747000     -2.86013000
  C     -3.25010000      4.36504000      1.57600000
  O     -4.13368000      5.33039000      1.71649000
  C      1.00792000      0.74019000      4.91016000
  O      1.30684000      0.97527300      6.15193000
  C     -4.64513000     -1.40048000      1.18271000
  O     -5.88160000     -1.71213000      1.41561000
  C     -0.87246300      4.89113000     -1.51326000
  O     -1.15356000      6.10988000     -1.83832000
  C      1.73352000      3.19142000      3.37200000
  O      2.14587000      4.20120000      4.07646000
  C     -1.08786000      2.89961000     -3.89632000
  O     -1.26056000      3.64134000     -5.04879000
  C     -3.51832000      3.27660000     -1.91438000
  O     -4.44456000      4.02132000     -2.53705000
  C      3.70540000      3.12751000      1.38796000
  O      4.58644000      3.92336000      1.89308000
  C      2.23600000      4.56315000     -0.27071800
  O      2.81872000      5.73391000     -0.27227700
  C      0.12012300      5.41531000      1.41873000
  O     -0.05659950      6.68044000      1.81489000
  C      4.41121000      2.28985000     -1.73707000
  O      5.49688000      2.94768000     -2.23762000
  C     -3.83180000      1.04912000      3.29459000
  O     -4.97994000      1.63585000      3.46990000
  C     -1.48070000      3.17110000      3.52322000
  O     -2.07121000      3.78715000      4.50159000
  C     -3.22411000      0.63752600     -3.77096000
  O     -4.12234000      0.90526900     -4.61337000
  C      1.86476000     -1.92335000     -4.15652000
  O      2.56093000     -2.47657000     -5.23054000
