110
Energy = -12543.47273832 au
 Ni     -1.79941000     -2.35045000     -2.95075000
 Ni      0.09978880      0.70972900     -1.63118000
 Ni     -3.27783000     -2.33927000     -0.61576800
 Ni      3.82567000      2.20240000      0.63852700
 Ni      2.89778000      1.57362000     -1.70836000
 Ni     -0.58325400      3.18416000     -0.49313000
 Ni     -1.33246000      0.71822300      0.54626900
 Ni      2.45497000      2.11993000      2.93800000
 Ni      0.71552900     -1.57118000     -2.81765000
 Ni      1.10847000     -3.06518000      0.52354800
 Ni     -0.67927300     -1.54972000     -0.58466500
 Ni     -0.01392450     -3.87105000     -1.66811000
 Ni      3.66487000     -2.39461000      0.44837700
 Ni     -1.01735000     -0.91385900      3.88330000
 Ni      0.44487800     -0.82415900      1.67606000
 Ni      2.43632000     -3.08830000     -1.64926000
 Ni      4.41402000     -0.24642800     -0.48766400
 Ni     -0.99179000     -0.05151500     -3.96136000
 Ni     -0.30507700     -3.11724000      2.68966000
 Ni     -2.50535000     -0.05747460     -1.73390000
 Ni      2.25172000     -2.44936000      2.78379000
 Ni      1.85534000     -0.80757800     -0.49649900
 Ni      1.58377000      0.79136600     -3.92957000
 Ni     -1.74881000      2.17952000     -2.80728000
 Ni      1.66060000     -0.14796300      4.04697000
 Ni     -0.04484580      1.50107000      2.96257000
 Ni     -1.41677000     -3.78178000      0.50670100
 Ni     -3.92239000     -0.00314094      0.42221000
 Ni      1.93778000      3.70650000     -0.32871600
 Ni      3.42481000     -0.17963700      2.00336000
 Ni      0.57826600      3.80552000      1.82108000
 Ni     -2.05601000      3.05587000      1.78301000
 Ni      3.40750000     -0.96717800     -2.60695000
 Ni      1.21833000      1.41923000      0.63714000
 Ni     -3.19829000      2.33375000     -0.56621200
 Ni     -2.80565000      0.73436900      2.76041000
 Ni      0.81018700      2.98509000     -2.75216000
 Ni     -2.14573000     -1.55794000      1.62698000
  C      1.17140000     -0.06412820     -5.57382000
  O      1.64027000     -0.02484720     -6.78821000
  C     -3.70965000      2.87747000      2.78054000
  O     -4.54226000      3.64786000      3.47926000
  C      3.17996000     -4.11827000      1.59413000
  O      4.01079000     -5.17743000      1.73010000
  C     -4.74509000      0.23926300      2.18465000
  O     -5.98522000      0.27758800      2.73140000
  C     -4.25797000     -2.72992000      0.98844900
  O     -5.25164000     -3.48429000      1.44617000
  C     -1.41869000     -1.73823000     -5.00436000
  O     -1.73825000     -2.13625000     -6.24384000
  C     -2.42032000      4.49469000      0.55062500
  O     -2.93017000      5.74501000      0.58810600
  C     -1.01235000      2.15727000     -4.66171000
  O     -1.36719000      2.74316000     -5.83219000
  C      3.82491000      3.98840000     -0.52527900
  O      4.66837000      5.01975000     -0.77629400
  C      2.46565000      2.45678000     -3.46118000
  O      3.23887000      3.21087000     -4.14957000
  C      4.88258000      1.51408000     -0.71150400
  O      6.02433000      1.90107000     -1.19758000
  C     -2.96564000     -1.15570000      4.20701000
  O     -3.77054000     -1.50323000      5.21858000
  C     -2.60045000     -4.59834000     -0.88690900
  O     -3.23778000     -5.78407000     -0.85995000
  C      3.30197000     -1.09013000      3.72915000
  O      4.25171000     -1.36031000      4.58725000
  C      4.36606000     -2.34226000     -1.56996000
  O      5.31321000     -3.09331000     -2.05007000
  C      5.01067000     -1.14808000      1.04682000
  O      6.22782000     -1.46088000      1.40275000
  C     -2.72834000      3.75464000     -2.34189000
  O     -3.42106000      4.64562000     -3.07920000
  C     -5.14698000      2.29531000     -0.49213900
  O     -6.16389000      3.09278000     -0.60463700
  C     -1.54505000      1.40062000      4.55331000
  O     -1.71419000      1.97264000      5.77225000
  C      0.63153700      4.88696000      0.30222300
  O      0.65971200      6.18751000      0.25311500
  C      0.29054300      4.85550000     -2.68999000
  O      0.38223800      5.87623000     -3.47317000
  C      1.21375000     -3.54977000      4.02997000
  O      1.53597000     -4.59471000      4.84010000
  C      2.46486000      3.79009000      2.09511000
  O      3.03520000      4.80072000      2.69632000
  C     -3.78983000     -2.50765000     -2.73457000
  O     -4.69849000     -3.23316000     -3.42836000
  C      0.10583100     -5.12604000      1.06859000
  O      0.41590100     -6.40882000      1.29546000
  C     -0.89081400     -4.21660000     -3.41290000
  O     -1.13861000     -5.25257000     -4.24321000
  C      1.78764000     -5.00926000     -1.45454000
  O      2.20006000     -6.21793000     -1.89419000
  C     -5.03238000     -0.64185100     -1.00358000
  O     -6.32842000     -0.72898700     -1.31586000
  C      1.74526000      1.65642000      4.50595000
  O      1.94592000      2.09432000      5.66635000
  C      4.60592000      0.30219500     -3.37511000
  O      5.46025000      0.25338100     -4.36804000
  C     -2.05466000     -3.78884000      3.04536000
  O     -2.66807000     -4.66285000      3.83687000
  C      0.31040500     -0.91875400      5.44426000
  O      0.37266400     -1.37174000      6.71055000
  C     -0.51974600      4.10495000      3.32965000
  O     -0.63429000      5.12335000      4.21051000
  C      2.10442000     -2.52469000     -4.00521000
  O      2.19441000     -3.23584000     -5.14724000
  C      4.16197000      1.60681000      2.39710000
  O      5.31859000      1.77784000      3.01696000
  C     -3.36213000      0.81840400     -3.58854000
  O     -4.48927000      0.83868000     -4.31604000
