110
Energy = -12760.13060216 au
 Ni     -0.27308600     -3.24498000     -2.35088000
 Ni     -1.35851000      0.27053400     -1.22636000
 Ni      0.11723400     -4.05874000      0.16581800
 Ni     -0.05600300      4.54355000     -0.19073900
 Ni     -1.08579000      3.00503000     -2.30397000
 Ni     -2.98145000      1.21634000      0.72323200
 Ni     -0.95292600     -0.41451300      1.25978000
 Ni      0.34099500      3.92265000      2.24454000
 Ni      0.34688500     -0.59450600     -3.29355000
 Ni      3.39660000     -0.41640400     -0.92464100
 Ni      0.61013100     -1.33443000     -0.62470800
 Ni      2.20523000     -2.22184000     -2.44095000
 Ni      3.55449000      2.07410000     -1.58544000
 Ni      1.91214000     -0.26101400      3.63020000
 Ni      1.50403000      0.47246500      1.09808000
 Ni      2.73283000      0.23726900     -3.28805000
 Ni      1.54859000      3.73386000     -2.04176000
 Ni     -2.24697000     -1.48290000     -3.17748000
 Ni      3.64984000     -1.08365000      1.65648000
 Ni     -1.88267000     -2.26173000     -0.45432200
 Ni      4.04869000      1.41980000      1.02760000
 Ni      1.10172000      1.15124000     -1.37084000
 Ni     -1.79499000      0.95354100     -3.79466000
 Ni     -3.91526000     -0.71646200     -1.09353000
 Ni      2.42461000      2.28149000      2.89778000
 Ni     -0.11491100      1.50817000      3.08767000
 Ni      2.55097000     -2.94170000      0.02898660
 Ni     -1.51534000     -2.99501000      2.24586000
 Ni     -2.47559000      3.68192000     -0.05660530
 Ni      2.24400000      3.16147000      0.55048800
 Ni     -2.07753000      3.01983000      2.40990000
 Ni     -2.63477000      0.46661900      3.11657000
 Ni      0.75581300      1.87892000     -3.88790000
 Ni     -0.44507100      2.07256000      0.47179800
 Ni     -3.41449000     -1.29689000      1.52313000
 Ni     -0.58474500     -1.12874000      3.76062000
 Ni     -3.35448000      1.82416000     -1.83520000
 Ni      1.00198000     -2.04470000      1.90451000
  C      1.90370000     -3.99390000      2.06358000
  O      2.35569000     -4.88154000      2.94601000
  C     -0.94843000      0.57592400      4.96961000
  O     -1.05627000      0.86633800      6.29695000
  C      0.94850300     -2.01863000      4.61592000
  O      1.18581000     -2.63827000      5.80288000
  C      2.12613000      4.11542000      2.75109000
  O      2.61575000      5.05869000      3.48456000
  C     -0.19176300      4.66065000     -2.13677000
  O     -0.52625100      5.75931000     -2.74557000
  C     -1.29991000      4.91526000      1.25578000
  O     -1.63311000      6.13657000      1.55912000
  C     -3.77399000      0.70496500     -3.55284000
  O     -4.70813000      0.93564600     -4.55943000
  C      4.83772000     -0.14797500      0.38459300
  O      6.12096000     -0.26452500      0.21444500
  C      1.84179000      4.81234000     -0.24617500
  O      2.45072000      5.93338000     -0.00578664
  C     -0.96895300     -0.54745700     -4.64361000
  O     -0.85080800     -0.79460600     -5.92236000
  C      2.78731000      3.31689000     -3.63650000
  O      3.31033000      4.34912000     -4.34452000
  C     -3.87642000      3.02230000      1.89619000
  O     -4.66390000      4.02245000      1.59991000
  C     -4.99611000     -2.24172000     -1.42974000
  O     -6.22409000     -2.44288000     -1.74544000
  C     -2.24903000     -4.08508000     -1.32197000
  O     -3.15712000     -5.05075000     -1.41612000
  C      2.09944000     -4.25061000     -1.49503000
  O      2.80033000     -5.40385000     -1.82579000
  C     -3.19565000     -2.73784000     -4.19129000
  O     -3.93291000     -3.15388000     -5.13763000
  C      4.38997000      0.90974600     -2.76348000
  O      5.48341000      1.05330000     -3.43200000
  C      4.15179000      2.98373000     -0.04209830
  O      5.14544000      3.82317000     -0.05752200
  C     -0.94369700      2.58985000     -4.26444000
  O     -1.24893000      3.26688000     -5.33153000
  C     -0.75252400      3.40548000      3.69295000
  O     -0.97272300      4.07623000      4.78309000
  C     -0.73498700     -4.34751000      3.34054000
  O     -1.20313000     -5.36775000      3.96865000
  C     -3.49136000     -3.46892000      1.39692000
  O     -4.46524000     -4.33731000      1.72043000
  C     -5.00316000     -0.23951500      1.68031000
  O     -6.23533000     -0.32036000      2.12730000
  C     -2.90160000      3.73742000     -1.88882000
  O     -3.64036000      4.61466000     -2.49602000
  C     -3.97295000      2.25353000      3.26197000
  O     -4.60007000      2.32981000      4.38959000
  C      1.95336000      1.46984000      4.74539000
  O      2.36476000      1.75945000      6.02490000
  C     -5.00582000      1.25878000     -0.74213500
  O     -6.30660000      1.67163000     -0.82475400
  C      4.39989000     -2.86326000      0.79973900
  O      5.43542000     -3.70511000      1.00640000
  C      4.06084000     -1.92270000     -2.23025000
  O      5.16167000     -2.36218000     -2.70038000
  C      1.92940000     -2.04116000     -4.34429000
  O      2.32230000     -2.61230000     -5.49902000
  C      1.95168000      0.85425100     -4.87476000
  O      2.40740000      1.00828000     -6.07015000
  C     -2.55776000     -1.60940000      3.69105000
  O     -3.17786000     -2.05079000      4.73986000
  C      3.67281000     -1.34358000      3.75718000
  O      4.61585000     -1.63110000      4.66872000
  C     -0.14212800     -4.16907000     -3.98692000
  O     -0.23797000     -5.31804000     -4.53536000
  C     -0.52056000     -5.84521000      0.12237400
  O     -0.22184000     -7.07490000      0.25203600
  C      4.31223000      1.73711000      2.97457000
  O      5.40284000      2.32357000      3.57776000
