110
Energy = -12557.21089975 au
 Ni     -1.76281000     -3.00096000     -1.83541000
 Ni     -2.15457000      0.47938500     -0.03734080
 Ni     -0.31606000     -3.92035000      0.39435500
 Ni     -0.32052700      4.62809000      0.43249500
 Ni     -1.98425000      3.04684000     -0.97569600
 Ni     -2.87260000      1.28251000      2.80700000
 Ni     -0.71567100     -0.38761300      1.97939000
 Ni      0.99258100      3.68030000      2.38121000
 Ni     -1.86547000     -0.37129200     -2.67800000
 Ni      2.00477000     -0.41090300     -1.70030000
 Ni     -0.16984100     -1.26382000     -0.49921700
 Ni      0.35809400     -2.21772000     -3.03355000
 Ni      2.37388000      2.14760000     -2.40037000
 Ni      2.90325000     -0.54923400      2.92734000
 Ni      1.45171000      0.36734700      0.79600700
 Ni      0.58431500      0.42998900     -3.79123000
 Ni      0.33335700      3.82139000     -1.85595000
 Ni     -3.93138000     -1.10427000     -1.34150000
 Ni      3.51987000     -1.32273000      0.50101100
 Ni     -2.31387000     -2.01954000      0.64790000
 Ni      3.87983000      1.21676000     -0.53549300
 Ni     -0.00583031      1.25746000     -1.26105000
 Ni     -3.70835000      1.41436000     -1.94969000
 Ni     -4.42746000     -0.28984400      1.09038000
 Ni      3.03011000      1.99914000      2.00919000
 Ni      1.07084000      1.25959000      3.35153000
 Ni      1.96159000     -3.13191000     -0.91060400
 Ni     -0.90323200     -2.91708000      2.80919000
 Ni     -2.44144000      3.71440000      1.60197000
 Ni      1.64926000      2.81604000      0.04313140
 Ni     -1.04997000      2.93447000      3.68159000
 Ni     -1.13595000      0.33429800      4.52689000
 Ni     -1.41613000      2.23269000     -3.35805000
 Ni     -0.54469800      2.06071000      1.19354000
 Ni     -2.88220000     -1.27166000      3.13775000
 Ni      0.58344600     -1.36967000      3.95913000
 Ni     -4.04985000      2.23392000      0.41547600
 Ni      1.30114000     -2.19494000      1.56587000
  C     -3.21597000     -3.29791000      2.52739000
  O     -4.15929000     -4.21154000      2.85523000
  C     -4.06317000     -0.12832400     -2.95299000
  O     -4.94973000     -0.20149400     -3.85034000
  C      2.76422000      4.15529000     -1.74862000
  O      3.35091000      5.30808000     -2.08872000
  C      1.46593000     -3.01714000      4.22282000
  O      1.87814000     -3.67843000      5.28261000
  C      4.20422000      3.09009000      0.65333200
  O      5.22955000      3.95784000      0.83278600
  C      1.25047000     -1.39257000     -4.69249000
  O      1.56627000     -1.81764000     -5.92760000
  C     -0.98091900      5.62431000     -1.32368000
  O     -0.92630500      6.95732000     -1.44697000
  C     -0.18313700     -4.75211000      2.53086000
  O     -0.38404500     -5.91214000      3.16219000
  C      2.35269000     -3.89450000     -2.60988000
  O      3.07913000     -4.77887000     -3.22338000
  C     -1.05037000      4.77693000      2.45425000
  O     -1.28094000      5.89459000      3.07169000
  C      0.85722600      0.23276600      4.92871000
  O      1.39178000      0.42953500      6.09681000
  C     -1.11334000      1.09376000     -4.96337000
  O     -1.32412000      1.28261000     -6.29557000
  C      4.82973000      1.61815000     -2.22527000
  O      5.92731000      2.19340000     -2.64844000
  C     -5.17521000      0.93355400     -0.41062500
  O     -6.43363000      1.17324000     -0.60467200
  C     -1.69714000     -1.54998000      4.64337000
  O     -2.10106000     -2.07295000      5.76130000
  C      3.87237000      1.26708000      3.75052000
  O      4.84626000      1.61401000      4.60687000
  C     -3.80164000      4.23570000     -0.54144400
  O     -4.37060000      5.44430000     -0.67815800
  C      2.57592000     -3.77200000      1.43814000
  O      3.12671000     -4.75693000      2.12337000
  C     -3.10060000      2.93285000     -2.93501000
  O     -3.81883000      3.71744000     -3.66960000
  C     -1.63235000     -1.59468000     -4.29629000
  O     -2.26204000     -1.90290000     -5.42475000
  C     -3.97647000      2.74115000      2.25517000
  O     -4.95608000      3.20061000      2.97423000
  C      5.25924000     -0.11773700      0.39936600
  O      6.57775000     -0.20170100      0.58285200
  C      2.22339000      1.65941000     -4.33596000
  O      2.80481000      2.06414000     -5.48502000
  C      1.83275000      5.20594000      0.70541000
  O      2.43830000      6.11354000      1.49894000
  C     -4.34533000     -0.06889040      2.99051000
  O     -5.36815000     -0.06299590      3.78926000
  C     -3.74670000     -3.01222000     -2.04643000
  O     -4.57698000     -3.82651000     -2.75900000
  C      4.26929000     -1.82236000      3.20852000
  O      5.27536000     -2.05433000      3.98298000
  C      0.79508100      3.01940000      4.15611000
  O      1.27811000      3.58795000      5.21912000
  C     -5.13976000     -2.00650000      0.27755000
  O     -6.42835000     -2.43182000      0.24787300
  C     -0.09635340      3.59613000     -3.85222000
  O     -0.09647480      4.60692000     -4.78098000
  C     -2.12517000     -4.51542000     -0.24992300
  O     -2.78283000     -5.70883000     -0.22791500
  C     -2.10939000      1.89766000      4.83791000
  O     -2.54888000      2.28762000      5.99880000
  C      3.97870000     -1.15782000     -2.79780000
  O      4.80383000     -1.16208000     -3.78704000
  C      0.95565400     -5.10186000     -0.67026900
  O      1.28555000     -6.39394000     -0.70404700
  C      4.28407000     -2.75155000     -0.54624900
  O      5.43834000     -3.40502000     -0.54884600
  C     -0.74951800     -4.09404000     -3.39892000
  O     -0.79532600     -5.17938000     -4.13832000
