110
Energy = -11804.41989710 au
 Ni     -1.55667000     -2.31921000     -2.80059000
 Ni     -0.64767800      1.02056000     -1.50153000
 Ni     -2.61162000     -2.99532000     -0.54347300
 Ni      2.58016000      3.50442000      0.57075400
 Ni      1.43951000      2.53200000     -1.60491000
 Ni     -1.85053000      2.82475000     -0.10777400
 Ni     -1.65278000      0.40028500      0.77131700
 Ni      1.52313000      2.85895000      2.82062000
 Ni      0.55318800     -0.76767200     -2.90896000
 Ni      1.82974000     -2.29773000      0.11570800
 Ni     -0.46922200     -1.39840000     -0.63617600
 Ni      0.78666200     -3.21196000     -2.06388000
 Ni      3.95665000     -0.79256900     -0.00090442
 Ni     -0.38098100     -1.14220000      3.82524000
 Ni      0.62302800     -0.50088500      1.52122000
 Ni      2.87303000     -1.68900000     -2.17675000
 Ni      3.73996000      1.65830000     -0.86140800
 Ni     -1.74763000      0.14109600     -3.70745000
 Ni      0.83641400     -2.95911000      2.41757000
 Ni     -2.73761000     -0.50297500     -1.38662000
 Ni      2.93290000     -1.41126000      2.31575000
 Ni      1.62844000      0.11802700     -0.74834400
 Ni      0.33559100      1.65797000     -3.81245000
 Ni     -2.96097000      1.94854000     -2.29420000
 Ni      1.72609000      0.37357700      3.73007000
 Ni     -0.57318200      1.30151000      2.93724000
 Ni     -0.28678700     -3.84594000      0.22945300
 Ni     -3.78926000     -1.11249000      0.89662300
 Ni      0.27089200      4.35566000     -0.19276400
 Ni      2.70920000      1.01570000      1.40385000
 Ni     -0.75959200      3.70755000      2.08472000
 Ni     -2.89790000      2.18361000      2.19149000
 Ni      2.66884000      0.75451800     -3.04851000
 Ni      0.44809400      1.91975000      0.65934900
 Ni     -3.98555000      1.27920000      0.03503100
 Ni     -2.70708000     -0.23793800      3.05554000
 Ni     -0.86932800      3.44544000     -2.39472000
 Ni     -1.46545000     -2.01610000      1.63056000
  C      2.57517000     -1.32740000      4.88748000
  O      3.09879000     -1.49750000      6.05628000
  C      3.43634000      3.78392000     -1.87012000
  O      4.46847000      4.50812000     -2.25678000
  C     -1.74220000      2.46893000     -4.08115000
  O     -2.13268000      3.13042000     -5.12326000
  C      0.27629000     -0.06869200     -5.36769000
  O      0.57850000      0.20096400     -6.60288000
  C      1.18254000      3.46818000     -3.89055000
  O      1.50226000      4.40036000     -4.80860000
  C     -0.74405800      0.31976500      5.14774000
  O     -0.83582400      0.36323400      6.46439000
  C     -1.77664000     -4.76513000     -0.63796600
  O     -2.32275000     -5.98509000     -0.80872200
  C     -2.11413000      4.58656000     -1.42061000
  O     -2.52219000      5.69191000     -1.95414000
  C     -3.47767000      1.55739000      4.04436000
  O     -4.33360000      2.15164000      4.85848000
  C      2.98148000     -3.38119000      2.64606000
  O      3.61266000     -4.29368000      3.38662000
  C      4.42357000      0.36079300      2.60890000
  O      5.56744000      0.38999900      3.25567000
  C     -4.50126000     -3.01272000      0.42328400
  O     -5.55296000     -3.72704000      0.78583700
  C     -3.94640000     -0.43971800     -4.23304000
  O     -4.34621000     -0.42918600     -5.45807000
  C      0.05018900     -3.27345000      4.23749000
  O      0.04419580     -3.88348000      5.40885000
  C      4.12918000      3.01065000      1.83004000
  O      5.09287000      3.89921000      1.94650000
  C      0.97779900     -5.28881000      1.73553000
  O      1.05074000     -6.56105000      1.70810000
  C     -0.65607100      3.05631000      4.04147000
  O     -0.81890000      3.83785000      5.04636000
  C     -0.76324400     -2.29248000     -4.70353000
  O     -1.08545000     -3.01969000     -5.73232000
  C      0.49368200     -5.50012000     -2.75098000
  O      0.58024400     -6.49155000     -3.56907000
  C      1.50934000      4.80860000      1.75755000
  O      1.79884000      5.85978000      2.44646000
  C     -2.28453000      4.65460000      1.19845000
  O     -2.47515000      5.91543000      1.77486000
  C      4.98119000     -1.40602000     -2.28364000
  O      5.89102000     -1.96818000     -2.99507000
  C      2.79540000     -4.26862000     -1.24851000
  O      3.61520000     -5.24948000     -1.30928000
  C     -2.51388000     -4.29642000      2.48291000
  O     -2.84686000     -5.33948000      3.16167000
  C      4.74938000     -2.56273000      0.71574500
  O      5.97488000     -2.89157000      0.95518900
  C     -3.72703000     -3.13064000     -2.26319000
  O     -4.43567000     -3.83784000     -3.11602000
  C     -4.37042000      3.07232000      1.09416000
  O     -5.50291000      3.90276000      1.11513000
  C      2.06850000      5.74286000     -1.47709000
  O      1.77976000      6.99751000     -1.46177000
  C      4.24022000      1.98737000     -4.46220000
  O      4.88542000      1.97834000     -5.57835000
  C     -4.94286000      0.27444400      1.67220000
  O     -6.17243000      0.17457300      2.06585000
  C     -4.84226000      2.97181000     -2.03456000
  O     -5.76460000      3.33911000     -2.83557000
  C     -5.06963000     -0.15448400     -1.45579000
  O     -6.27998000     -0.48786700     -1.81832000
  C      2.24911000      2.26658000      4.78883000
  O      2.95341000      2.86993000      5.69809000
  C     -3.20220000     -1.96366000      3.90980000
  O     -3.95132000     -2.20471000      4.92679000
  C      5.44582000      0.51267600     -0.29539700
  O      6.67949000      0.95699800     -0.72490900
  C      1.88837000     -2.15427000     -4.35469000
  O      2.50045000     -2.77422000     -5.31090000
