110
Energy = -12620.86912816 au
 Ni     -0.49885100     -3.54719000     -2.17456000
 Ni     -1.13969000     -0.09573920     -1.13844000
 Ni     -0.29910600     -4.35606000      0.25990500
 Ni      0.77891400      4.00939000     -0.26077200
 Ni     -0.27264600      2.27455000     -1.87867000
 Ni     -2.61869000      1.05919000      0.69019300
 Ni     -0.86205200     -0.81915600      1.36081000
 Ni      1.11334000      3.36036000      2.21868000
 Ni      0.28795800     -1.34687000     -3.16906000
 Ni      3.54149000     -1.54191000     -0.77825600
 Ni      0.59316000     -1.94576000     -0.48329500
 Ni      2.07687000     -3.13429000     -2.29982000
 Ni      3.97449000      0.86172000     -1.33320000
 Ni      1.93843000     -1.08495000      3.78154000
 Ni      1.64575000     -0.34700500      1.20614000
 Ni      2.91191000     -0.68487900     -3.17078000
 Ni      2.25293000      2.85941000     -1.96901000
 Ni     -2.29641000     -1.76552000     -2.85146000
 Ni      3.46530000     -2.16948000      1.81782000
 Ni     -1.94771000     -2.40452000     -0.34790400
 Ni      4.11125000      0.14063400      1.18172000
 Ni      1.41178000      0.37842600     -1.24582000
 Ni     -1.41047000      0.60770700     -3.68465000
 Ni     -3.76764000     -0.63991900     -1.06184000
 Ni      2.66660000      1.24564000      3.03616000
 Ni      0.19777200      0.83148900      3.17876000
 Ni      2.23209000     -3.86509000      0.23710500
 Ni     -1.69445000     -3.21907000      2.09752000
 Ni     -1.76839000      3.45287000     -0.09002510
 Ni      2.61867000      2.21874000      0.36652200
 Ni     -1.49248000      2.69417000      2.44811000
 Ni     -2.41288000      0.27845800      3.18600000
 Ni      1.12529000      1.10456000     -3.76176000
 Ni     -0.03037210      1.53997000      0.59843200
 Ni     -3.47358000     -1.34690000      1.42214000
 Ni     -0.58854400     -1.62632000      3.90359000
 Ni     -2.92702000      1.78758000     -1.79782000
 Ni      0.87597100     -2.90501000      2.21578000
  C      4.85935000     -1.44859000      0.56709600
  O      6.12216000     -1.69074000      0.46200100
  C      3.33792000     -4.08643000      2.42824000
  O      4.27940000     -4.75193000      3.09761000
  C     -3.74762000      1.79676000      2.94994000
  O     -4.82512000      2.24483000      3.59209000
  C      1.01259000     -4.81258000     -1.37902000
  O      1.24352000     -6.01295000     -1.80620000
  C     -4.72853000     -1.04597000     -2.68831000
  O     -5.94798000     -1.32799000     -3.06592000
  C     -4.16778000      2.77878000     -0.49643100
  O     -5.32125000      3.44339000     -0.52759100
  C     -4.19061000     -2.92849000      0.35994200
  O     -5.14069000     -3.87544000      0.42775100
  C     -3.59262000      1.65598000     -3.62965000
  O     -4.54731000      2.12286000     -4.40525000
  C      0.95571600     -4.70496000      1.59910000
  O      1.18222000     -5.80959000      2.23643000
  C      0.14659500      4.84813000      2.88697000
  O      0.35934900      5.86683000      3.67433000
  C     -5.03104000      0.11878100      0.55459500
  O     -6.33879000      0.31145400      0.74851100
  C     -1.66719000     -0.50288300      5.06098000
  O     -2.19481000     -0.70853700      6.29593000
  C      2.43937000      4.08729000      0.50509000
  O      3.32143000      5.04287000      0.60987000
  C     -1.53771000     -3.87782000      3.96596000
  O     -2.17681000     -4.82272000      4.62153000
  C     -2.49863000      4.25767000      1.59261000
  O     -3.19237000      5.36295000      1.96789000
  C      2.91600000      3.13013000      3.42248000
  O      3.52764000      3.80223000      4.42353000
  C      4.58807000     -0.54335600     -2.33495000
  O      5.76213000     -0.67292000     -2.85181000
  C      3.00329000      1.50172000     -4.15458000
  O      3.58004000      1.86426000     -5.34436000
  C     -2.23030000     -4.95673000      0.14189600
  O     -2.55007000     -6.24117000      0.01904330
  C      4.85355000      1.92664000      1.08313000
  O      6.01043000      2.53341000      1.40335000
  C      0.97698100     -2.65067000      4.20628000
  O      1.19676000     -3.44858000      5.19579000
  C     -0.66632000      2.26471000     -4.53367000
  O     -0.88629100      2.93553000     -5.69241000
  C      0.61833800     -0.36621200     -4.75996000
  O      0.72486400     -0.73079100     -5.98816000
  C     -1.22195000      2.35095000      4.34008000
  O     -1.46426000      2.92964000      5.53300000
  C      3.57268000     -3.46318000     -1.09725000
  O      4.61196000     -4.20779000     -1.25928000
  C     -0.22189800     -3.19525000     -3.94455000
  O     -0.17761900     -3.92562000     -5.03334000
  C      4.09999000      2.78932000     -1.73566000
  O      5.10335000      3.47055000     -2.12204000
  C      2.81933000     -2.52763000     -4.05525000
  O      3.63885000     -3.15891000     -4.94327000
  C     -2.39412000     -0.98027600     -4.67288000
  O     -3.04297000     -1.21590000     -5.83420000
  C     -2.83023000     -3.72505000     -2.43141000
  O     -3.66046000     -4.63774000     -2.96322000
  C      3.74904000     -0.43995500      3.37012000
  O      4.66313000     -0.46578900      4.29430000
  C      1.30431000      0.43070300      4.66185000
  O      1.31672000      0.74797400      5.90918000
  C     -0.34667900      5.57825000     -0.27348000
  O     -0.27881500      6.88288000     -0.32638800
  C     -2.01076000      4.01650000     -2.12355000
  O     -2.37929000      5.08843000     -2.81639000
  C     -3.87710000     -1.44907000      3.35918000
  O     -4.97006000     -1.74946000      4.07412000
  C      1.30696000      4.21295000     -2.86372000
  O      1.57090000      5.23516000     -3.66622000
