110
Energy = -12645.75554345 au
 Ni      0.01902750     -3.80831000     -2.47223000
 Ni     -1.40547000     -0.38739000     -1.34053000
 Ni      0.04683850     -4.49576000      0.03421890
 Ni     -0.28671800      3.87944000     -0.07989550
 Ni     -0.91735600      2.13122000     -1.96714000
 Ni     -3.52496000      0.48172300      0.23318700
 Ni     -1.33286000     -1.16251000      1.10519000
 Ni     -0.25087300      3.22690000      2.43311000
 Ni      0.41926700     -1.18854000     -3.18578000
 Ni      2.99410000     -1.10548000     -0.49248800
 Ni      0.49685800     -1.97460000     -0.55256800
 Ni      2.31054000     -2.85452000     -2.31366000
 Ni      3.45759000      1.51904000     -0.96241200
 Ni      1.30072000     -1.10163000      3.90802000
 Ni      1.10829000     -0.26545200      1.31711000
 Ni      2.99209000     -0.29394100     -2.90127000
 Ni      1.60337000      3.17826000     -1.85310000
 Ni     -2.01553000     -2.06459000     -3.22298000
 Ni      3.13317000     -1.85639000      2.14164000
 Ni     -1.94176000     -3.17427000     -0.87282500
 Ni      3.55133000      0.75678700      1.52938000
 Ni      1.01476000      0.54345700     -1.15865000
 Ni     -1.53766000      0.39670100     -3.86238000
 Ni     -3.92039000     -1.22277000     -1.56121000
 Ni      1.70265000      1.59165000      3.22956000
 Ni     -0.72051500      0.53768900      2.97688000
 Ni      2.43584000     -3.66029000      0.19910500
 Ni     -1.81490000     -3.55154000      1.77126000
 Ni     -2.85453000      2.97252000     -0.15537400
 Ni      1.60535000      2.28881000      0.74725700
 Ni     -2.67415000      2.17290000      2.29565000
 Ni     -3.23874000     -0.30470500      2.72009000
 Ni      0.93745300      1.34905000     -3.60447000
 Ni     -0.84560100      1.35718000      0.53307700
 Ni     -3.77172000     -2.08418000      0.90013600
 Ni     -1.26694000     -1.94882000      3.62970000
 Ni     -3.31464000      1.19758000     -2.21232000
 Ni      0.81842100     -3.07700000      2.19461000
  C      4.29482000     -3.11118000      0.82200400
  O      5.33352000     -3.98665000      0.97828900
  C     -5.44204000     -1.16807000      1.04522000
  O     -6.67651000     -1.55318000      1.29482000
  C      2.26187000      0.06901550     -4.76176000
  O      2.84090000      0.10665500     -5.99293000
  C      1.16623000     -2.86277000     -3.77744000
  O      1.41042000     -3.22286000     -5.00290000
  C      0.00955249      2.68543000     -4.55529000
  O      0.00551962      3.29051000     -5.71279000
  C      3.40031000      2.61402000      2.87118000
  O      4.23420000      3.33593000      3.63782000
  C     -1.37326000      5.13642000      0.84503300
  O     -1.46652000      6.44827000      0.83158900
  C     -0.60302600     -3.72343000      3.25178000
  O     -0.48616700     -4.69825000      4.11474000
  C      4.22269000      1.34888000     -2.87538000
  O      5.37451000      1.68333000     -3.49978000
  C     -0.77945700     -0.62506200     -5.32245000
  O     -0.93116600     -0.86258000     -6.61515000
  C     -2.41168000      3.94968000      2.95323000
  O     -3.06595000      4.86864000      3.65701000
  C      3.96431000     -1.86457000     -2.64533000
  O      5.02474000     -2.32533000     -3.21424000
  C      1.94114000      4.54154000      0.00600681
  O      2.63483000      5.65818000      0.25755200
  C      1.12573000      4.31002000      3.16157000
  O      1.19681000      5.39834000      3.86341000
  C      1.40097000     -4.81224000      1.38721000
  O      1.65191000     -6.00436000      1.81891000
  C     -3.29432000     -4.64886000      0.39108400
  O     -3.56405000     -5.79198000      1.02749000
  C     -4.84914000      0.54150300     -1.23354000
  O     -6.07937000      0.88566300     -1.43813000
  C      4.50827000     -0.47017800      2.77684000
  O      5.72484000     -0.50216000      3.38113000
  C     -3.03029000      0.91446900      4.31563000
  O     -3.74015000      1.09829000      5.43371000
  C      4.41885000      2.65098000      0.31304500
  O      5.55005000      3.35256000      0.33641400
  C     -3.85481000     -3.09865000     -1.18643000
  O     -4.63885000     -3.99077000     -1.69934000
  C     -1.59868000     -4.00287000     -3.85044000
  O     -1.91691000     -4.78998000     -4.89044000
  C     -2.76256000      2.39103000     -3.80031000
  O     -3.44730000      3.17970000     -4.64523000
  C     -0.59927000      4.39445000     -2.17889000
  O     -0.93649600      5.43666000     -2.95709000
  C     -0.35200000     -1.08214000      5.26328000
  O     -0.47885600     -1.44350000      6.56961000
  C     -3.49541000     -0.71524300     -3.50613000
  O     -4.40871000     -0.82883300     -4.41956000
  C     -1.00655000     -4.94171000     -1.34767000
  O     -1.43154000     -6.13789000     -1.64019000
  C      1.94928000     -4.51206000     -1.52736000
  O      2.49910000     -5.61347000     -1.94142000
  C     -0.17608200      2.08698000      4.53704000
  O     -0.41235300      2.40660000      5.82315000
  C      4.94754000     -0.28646700     -0.22061000
  O      6.23107000     -0.64880900     -0.35703700
  C     -4.27113000      1.56439000      1.60641000
  O     -5.51400000      1.86144000      1.81638000
  C      2.21058000     -2.70296000      3.52138000
  O      2.77764000     -3.50703000      4.37796000
  C      2.43894000      0.35595500      4.71106000
  O      2.92067000      0.56566000      5.96212000
  C      2.75170000      3.81092000     -3.19385000
  O      3.25687000      4.88383000     -3.67763000
  C     -4.33158000      3.86808000     -0.94519100
  O     -5.03062000      4.93225000     -0.99253300
  C     -3.19043000     -2.28317000      3.16649000
  O     -3.96766000     -2.80831000      4.06166000
