110
Energy = -12669.40978375 au
 Ni      4.50424000     -1.02243000     -0.45632500
 Ni      0.91268200     -1.16533000     -1.49132000
 Ni      3.73337000     -1.52448000      2.06265000
 Ni     -3.05614000      1.38701000     -2.30423000
 Ni     -0.63957200      0.14961500     -3.20381000
 Ni     -1.13065000     -2.76920000     -1.03617000
 Ni      0.16804000     -1.62052000      0.94512300
 Ni     -3.71884000      0.80003200      0.21644700
 Ni      3.16159000      0.47658500     -2.36269000
 Ni      2.06387000      2.72333000      0.99818000
 Ni      2.19222000     -0.04795510      0.45891200
 Ni      4.17657000      1.49371000      0.06064350
 Ni      0.45766300      4.04527000     -0.82943100
 Ni     -0.85155700      0.52596200      3.89480000
 Ni     -0.08412120      0.91324300      1.32563000
 Ni      2.60202000      3.04984000     -1.76688000
 Ni     -0.87436800      2.91389000     -2.74568000
 Ni      3.18553000     -2.18734000     -2.49222000
 Ni      1.28322000      2.19230000      3.32803000
 Ni      2.80374000     -2.88192000      0.08430430
 Ni     -0.26658700      3.50020000      1.72766000
 Ni      0.64482400      1.38960000     -1.11893000
 Ni      1.56580000     -0.79442800     -4.03990000
 Ni      1.17873000     -3.72625000     -1.92868000
 Ni     -2.45824000      1.88788000      2.34210000
 Ni     -2.19493000     -0.71168300      1.92556000
 Ni      3.56204000      1.09214000      2.50000000
 Ni      1.67961000     -3.14977000      2.55854000
 Ni     -2.77099000     -1.44120000     -2.72152000
 Ni     -1.73987000      2.47560000     -0.26892400
 Ni     -3.38424000     -1.87476000     -0.07168110
 Ni     -1.83603000     -3.38379000      1.55507000
 Ni      1.30600000      2.01666000     -3.55567000
 Ni     -1.37062000     -0.19848600     -0.64794000
 Ni      0.48125300     -4.21938000      0.62344800
 Ni     -0.41455300     -2.22178000      3.45491000
 Ni     -0.25340500     -2.34677000     -3.50926000
 Ni      1.57530000     -0.61321100      3.20257000
  C      0.77313600      0.59389300      5.18124000
  O      0.87452500      0.55396900      6.52391000
  C     -2.49343000      0.08757690     -4.38546000
  O     -2.89487000      0.19279500     -5.67141000
  C      4.42071000      2.56233000      1.67070000
  O      5.53447000      3.20366000      1.79807000
  C     -1.66287000     -3.76522000     -3.27623000
  O     -2.07759000     -4.84586000     -3.93918000
  C     -5.00086000     -0.74622100     -0.16876800
  O     -6.34727000     -0.92656500     -0.19077200
  C      3.38525000     -0.98515900     -3.87078000
  O      4.23635000     -1.01154000     -4.84317000
  C     -2.39552000      3.11021000     -3.84919000
  O     -2.87544000      3.97886000     -4.72409000
  C     -4.52245000     -2.03829000     -3.13262000
  O     -5.32815000     -2.48974000     -4.00722000
  C      0.29771900     -4.53658000      2.45236000
  O      0.37793900     -5.71480000      2.99054000
  C     -0.20914200      3.04124000      4.30516000
  O     -0.32706400      3.96180000      5.26381000
  C     -4.49772000      2.18675000      1.36474000
  O     -5.71645000      2.57652000      1.75103000
  C      0.46953200      1.25542000     -5.17817000
  O      0.40448600      1.74236000     -6.42658000
  C      3.04519000      2.43798000      3.54396000
  O      3.58784000      3.07251000      4.50477000
  C      3.42173000     -3.35504000      1.96364000
  O      4.28095000     -4.29200000      2.21813000
  C     -3.54743000     -3.78069000     -0.33816800
  O     -4.52113000     -4.67178000     -0.46257900
  C     -0.67228800      5.52432000     -0.63450900
  O     -0.67325900      6.81006000     -0.66704100
  C     -2.19441000      4.04366000      1.96728000
  O     -2.83385000      5.12251000      2.48860000
  C      1.32750000      4.31520000      1.65005000
  O      1.84454000      5.40191000      2.07842000
  C      3.49361000     -0.55384400      3.61203000
  O      4.02144000     -0.74730900      4.78000000
  C     -3.10903000     -3.82363000      3.08283000
  O     -3.48547000     -4.98421000      3.47919000
  C     -4.11219000     -1.11440000      2.36270000
  O     -5.02882000     -1.42054000      3.22936000
  C      1.90233000     -3.47806000     -3.65138000
  O      2.26091000     -4.47299000     -4.40183000
  C     -3.01795000      1.27351000      4.57776000
  O     -3.72973000      1.71714000      5.54238000
  C      1.99979000     -4.53557000     -0.44978800
  O      2.73282000     -5.61158000     -0.46740100
  C      0.76974700      3.83280000     -2.89986000
  O      0.82710500      4.88643000     -3.66058000
  C     -3.14720000      3.60896000     -1.05879000
  O     -3.91411000      4.66992000     -1.00624000
  C      4.84804000      0.52692700     -1.40872000
  O      5.88266000      0.81955500     -2.14099000
  C     -1.96709000     -1.49692000      4.57178000
  O     -2.48076000     -1.89730000      5.73630000
  C      5.03713000     -0.44984700      1.24394000
  O      6.28231000     -0.57308600      1.60106000
  C      0.26996700     -1.52612000     -4.98997000
  O      0.08348910     -1.78887000     -6.21865000
  C      3.40205000      4.39691000     -0.68383900
  O      4.12982000      5.45411000     -0.95180600
  C     -0.94448900     -5.01015000     -0.58330900
  O     -1.31764000     -6.25322000     -0.96115400
  C      1.24305000     -2.55135000      4.23801000
  O      1.62804000     -3.00468000      5.38335000
  C      3.15718000      2.16608000     -3.34572000
  O      4.02958000      2.52144000     -4.24049000
  C     -4.88910000      1.38347000     -2.42004000
  O     -5.94084000      1.80526000     -3.02879000
  C      4.51387000     -2.61327000     -1.30441000
  O      5.46586000     -3.43965000     -1.53442000
