110
Energy = -12345.14087456 au
 Ni     -0.08892450     -3.17763000     -2.41226000
 Ni     -1.33387000      0.17266400     -1.29576000
 Ni      0.33419100     -3.89646000      0.06126650
 Ni     -0.15950400      4.43540000     -0.43702600
 Ni     -1.07363000      2.80940000     -2.20701000
 Ni     -2.95869000      0.98349300      0.52909800
 Ni     -0.91236600     -0.49249600      1.14789000
 Ni      0.33137200      3.81128000      2.07060000
 Ni      0.26768400     -0.65272000     -3.19267000
 Ni      3.05975000     -0.32343100     -0.84273700
 Ni      0.68175900     -1.31788000     -0.68574100
 Ni      2.30555000     -2.12532000     -2.58256000
 Ni      3.41770000      2.22399000     -1.52342000
 Ni      2.05226000     -0.16911300      3.52340000
 Ni      1.46731000      0.48770500      1.00555000
 Ni      2.61542000      0.37155200     -3.37216000
 Ni      1.35278000      3.58649000     -2.24729000
 Ni     -2.13352000     -1.64441000     -3.02419000
 Ni      3.59346000     -0.90925300      1.69509000
 Ni     -1.71408000     -2.34326000     -0.54324500
 Ni      3.86210000      1.56076000      0.85322500
 Ni      1.02987000      1.14580000     -1.45132000
 Ni     -1.82116000      0.89193400     -3.72847000
 Ni     -3.72784000     -0.85378400     -1.15973000
 Ni      2.36480000      2.27039000      2.66370000
 Ni     -0.22868500      1.32219000      2.86678000
 Ni      2.77196000     -2.80709000     -0.04411840
 Ni     -1.29467000     -3.01270000      1.97593000
 Ni     -2.59830000      3.43312000     -0.27688500
 Ni      2.02747000      3.15245000      0.23014800
 Ni     -2.18916000      2.76222000      2.35147000
 Ni     -2.53831000      0.40139100      3.08524000
 Ni      0.58891700      1.89079000     -3.97747000
 Ni     -0.55669000      1.97162000      0.38167700
 Ni     -3.34866000     -1.52026000      1.35895000
 Ni     -0.49667200     -1.18395000      3.61605000
 Ni     -3.39574000      1.71401000     -1.98008000
 Ni      1.15316000     -2.03950000      1.80320000
  C      2.13059000      4.69842000     -0.94368100
  O      2.82971000      5.74650000     -1.23649000
  C     -4.10993000     -0.64176800     -3.21128000
  O     -5.21229000     -0.94983300     -3.96322000
  C     -0.47217300      0.17805100      5.01664000
  O     -0.57554300      0.31277000      6.33859000
  C      1.34298000     -1.71706000     -4.47249000
  O      1.51220000     -2.08726000     -5.76963000
  C      4.07084000      0.93348700      2.62043000
  O      5.18183000      1.15268000      3.25920000
  C      4.99110000      0.00422972     -0.44869100
  O      6.29583000     -0.13553900     -0.75537000
  C     -4.51023000      1.16572000      1.79487000
  O     -5.75246000      1.52110000      2.06826000
  C     -5.14494000     -1.17030000      0.20230800
  O     -6.44406000     -1.52426000      0.17249800
  C     -3.41050000     -3.52173000      1.67647000
  O     -4.31729000     -4.37851000      2.17273000
  C     -0.47185800      5.70294000      1.42442000
  O     -0.35350600      6.95508000      1.01527000
  C     -0.91008000     -4.92718000     -1.28910000
  O     -1.09856000     -6.24162000     -1.47792000
  C     -3.43066000     -3.24880000     -1.38470000
  O     -4.21891000     -4.28477000     -1.63301000
  C     -5.12156000      1.96230000     -0.81204100
  O     -6.15510000      2.42477000     -1.46028000
  C      2.77272000     -1.31245000      4.79658000
  O      3.29173000     -1.45642000      5.95625000
  C      1.78679000     -3.45000000      3.13219000
  O      2.27450000     -4.32322000      3.88710000
  C      1.72329000     -4.14951000     -2.70568000
  O      2.10955000     -5.16775000     -3.50929000
  C     -0.61842800     -4.81282000      1.75362000
  O     -0.86662500     -6.01839000      2.30791000
  C      2.20294000     -4.73302000      0.46865400
  O      2.76612000     -5.95458000      0.51279400
  C     -2.53296000      2.01518000      4.00370000
  O     -3.11608000      2.48567000      5.04738000
  C     -0.78596400      3.78923000      3.94427000
  O     -0.77467000      4.97073000      4.56776000
  C     -1.04986000     -2.95983000      4.24817000
  O     -1.28233000     -3.58014000      5.39838000
  C      1.69066000      1.95650000      4.60062000
  O      2.19228000      2.61464000      5.65538000
  C     -3.62871000     -1.25975000      3.56686000
  O     -4.53769000     -1.50134000      4.51709000
  C     -1.43693000     -0.61882100     -5.00519000
  O     -1.79091000     -0.81635900     -6.30627000
  C      1.52356000      0.86849700     -5.54981000
  O      1.87539000      1.39997000     -6.69626000
  C      3.24033000      2.45757000     -3.79230000
  O      4.34761000      3.04952000     -4.32642000
  C      4.17134000     -0.96732400     -3.30584000
  O      5.04675000     -1.08861000     -4.32189000
  C      2.34429000      4.01175000      1.94107000
  O      3.05952000      5.03883000      2.28400000
  C     -0.00530376      3.71878000     -3.57476000
  O     -0.14458300      4.77534000     -4.31654000
  C      4.12374000     -2.81344000     -1.41226000
  O      5.21259000     -3.57644000     -1.67982000
  C     -2.74682000      2.79938000     -3.55648000
  O     -3.23329000      3.10376000     -4.72323000
  C     -2.39511000      4.12029000     -2.31328000
  O     -2.86274000      5.32479000     -2.32979000
  C      4.42928000      2.99727000     -0.18874400
  O      5.50810000      3.69589000     -0.13831300
  C     -3.51178000      4.14896000      1.40115000
  O     -4.28705000      5.18123000      1.76811000
  C     -1.56225000     -3.31142000     -3.97715000
  O     -1.99164000     -4.18192000     -4.90193000
  C      4.58920000     -2.61754000      1.86511000
  O      5.70893000     -2.98674000      2.40262000
