246
Energy =   -372.44896448 au
 Au      1.43064398      1.52230695      0.36898203
 Au     -0.37792623     -0.64671757     -2.88899632
 Au     -0.64036714      0.93220972      2.17514630
 Au      1.83048194     -0.89702559     -1.07863435
 Au     -0.55149577     -0.23274902     -0.19347365
 Au     -2.99874341      0.91842717      0.39266580
 Au     -1.46522912     -2.51368674     -1.27238006
 Au     -2.48266120     -1.42677337      1.41985843
  P     -2.42852101     -2.97147005      3.24285086
  C     -0.83891187     -2.65526410      4.07725059
  C     -0.69488997     -2.46074395      5.45103622
  C      0.55272328     -2.19099479      5.99503089
  C      1.67169398     -2.10804533      5.17880089
  C      1.54024465     -2.29197492      3.80757094
  C      0.29441728     -2.55708215      3.26356333
  H      2.64411187     -1.89638830      5.60771729
  H     -1.56177316     -2.51199423      6.09994368
  H      0.19440976     -2.68938145      2.19117759
  H      2.40859184     -2.22969538      3.16102211
  C     -2.51041392     -4.78828024      3.12055144
  C     -3.42013651     -5.34287037      2.21628883
  C     -3.56482405     -6.71769151      2.12119216
  C     -2.79100761     -7.55595312      2.91275117
  C     -1.87661812     -7.01451449      3.80560699
  C     -1.73704682     -5.63876997      3.91392366
  H     -1.02292980     -5.22368930      4.61595308
  H     -2.90115882     -8.63103545      2.83365657
  H     -1.27039006     -7.66496964      4.42535713
  H     -4.01965734     -4.69052410      1.58945597
  H      0.64855309     -2.04126618      7.06419085
  C     -3.70796353     -2.59951347      4.48107426
  C     -4.48405136     -1.45145259      4.30840207
  C     -5.49261456     -1.13489411      5.20505059
  C     -5.74027742     -1.96569440      6.29034978
  C     -4.97827096     -3.11283315      6.47118980
  C     -3.97253367     -3.43249483      5.57260010
  H     -6.53269165     -1.72429611      6.98884038
  H     -5.17325527     -3.76684900      7.31310255
  H     -3.39686119     -4.34074201      5.71167212
  H     -4.28668800     -7.13577653      1.42946077
  H     -6.08946169     -0.24295366      5.05244246
  H     -4.29759511     -0.80642698      3.45588018
  P     -4.13635008      2.97696354      0.06490037
  C     -5.66393483      2.88676956     -0.91582649
  C     -6.76852352      3.71840321     -0.71855441
  C     -7.88911574      3.59552785     -1.52608877
  C     -7.92350050      2.64382438     -2.53604563
  C     -6.83642398      1.80243859     -2.73220906
  C     -5.71687775      1.91967333     -1.92430546
  H     -8.80105088      2.55147444     -3.16497249
  H     -6.75718178      4.45713890      0.07458551
  H     -4.87470810      1.24911814     -2.06479309
  H     -6.86253103      1.04951175     -3.51151813
  C     -3.17889960      4.32584761     -0.70140966
  C     -1.79707894      4.33975623     -0.49881826
  C     -1.01988474      5.37269882     -0.99613647
  C     -1.60717832      6.39129782     -1.73425794
  C     -2.97547069      6.37354549     -1.96691302
  C     -3.75926878      5.35240622     -1.44968319
  H     -4.82751132      5.35035059     -1.63402117
  H     -0.99701024      7.19431169     -2.13088055
  H     -3.43829714      7.16279017     -2.54790552
  H     -1.32913848      3.53000912      0.05204934
  H     -8.74037705      4.24627801     -1.36338814
  C     -4.62757591      3.68090731      1.66950661
  C     -4.70649141      2.81541585      2.76302793
  C     -5.06611417      3.28470608      4.01597007
  C     -5.35726656      4.63029299      4.19367839
  C     -5.27942614      5.50229969      3.11591525
  C     -4.91065199      5.03568234      1.86324360
  H     -5.63827241      5.00058263      5.17252229
  H     -5.50068846      6.55451595      3.25220481
  H     -4.83148263      5.73014764      1.03447134
  H      0.04764193      5.37929340     -0.81149137
  H     -5.11730614      2.59906806      4.85435070
  H     -4.47812186      1.76326760      2.62633722
  P     -0.05465815      0.51778362     -4.93500261
  C     -1.07352558      2.02844237     -4.95496013
  C     -0.75057240      3.17008475     -5.69410220
  C     -1.55724778      4.29748926     -5.63699773
  C     -2.69533954      4.30311207     -4.84231038
  C     -3.02683605      3.17515989     -4.10497293
  C     -2.22023117      2.05004062     -4.15767420
  H     -3.32106435      5.18661754     -4.79370593
  H      0.13780042      3.18132582     -6.31509485
  H     -2.47784123      1.17395203     -3.57134795
  H     -3.91428344      3.17409373     -3.48214476
  C     -0.44654240     -0.36361087     -6.47455752
  C     -0.16297728     -1.73225069     -6.50918131
  C     -0.43687804     -2.47942481     -7.64254215
  C     -1.00412112     -1.87076440     -8.75451532
  C     -1.29887271     -0.51456863     -8.72662329
  C     -1.02542517      0.23766690     -7.59402140
  H     -1.26957446      1.29377785     -7.57728145
  H     -1.22238667     -2.45532078     -9.64045977
  H     -1.74774195     -0.03817697     -9.59048116
  H      0.27096615     -2.21113340     -5.63632211
  H     -1.29344586      5.17521784     -6.21553997
  C      1.62716530      1.17202380     -5.19071279
  C      2.42770241      1.38250128     -4.06729192
  C      3.67386915      1.97497900     -4.18261747
  C      4.14455999      2.35912640     -5.43049583
  C      3.37416061      2.12247228     -6.56122521
  C      2.12504504      1.53091956     -6.44597785
  H      5.11656455      2.82913901     -5.52242264
  H      3.74660068      2.40242808     -7.53972588
  H      1.53498001      1.34296454     -7.33584592
  H     -0.21338918     -3.54032673     -7.65427699
  H      4.27949760      2.12901877     -3.29695731
  H      2.06700082      1.07633492     -3.09090008
  P     -1.79782106     -4.83639681     -1.74318612
  C     -0.88888999     -5.94275036     -0.62079770
  C     -0.63499358     -7.28388947     -0.92403525
  C      0.08020944     -8.07744083     -0.04033716
  C      0.56942580     -7.54055615      1.14444091
  C      0.34300265     -6.20386106      1.44378023
  C     -0.38610323     -5.41436168      0.56841180
  H      1.13288341     -8.16229072      1.83005427
  H     -0.98754855     -7.70200785     -1.86018962
  H     -0.56986724     -4.37106421      0.80392301
  H      0.73151267     -5.77527379      2.36056055
  C     -0.97267777     -5.16298604     -3.33572983
  C      0.27997225     -4.57341224     -3.53099445
  C      0.98093767     -4.76824321     -4.70907292
  C      0.43276793     -5.55070236     -5.71849998
  C     -0.81606050     -6.12979534     -5.54133486
  C     -1.51651645     -5.94021643     -4.35834500
  H     -2.49054898     -6.39826019     -4.23085112
  H      0.98078349     -5.70994746     -6.63975401
  H     -1.24857603     -6.73717787     -6.32792142
  H      0.70930322     -3.96211221     -2.74399926
  H      0.26409448     -9.11800594     -0.28087188
  C     -3.46384697     -5.53626054     -1.93463827
  C     -3.88064679     -6.74489044     -1.37474979
  C     -5.18687475     -7.18082746     -1.54175803
  C     -6.09228273     -6.41755823     -2.26519145
  C     -5.69047248     -5.20959653     -2.82085225
  C     -4.38873285     -4.76828404     -2.65110513
  H     -7.11170407     -6.76154889     -2.39398065
  H     -6.39454736     -4.60789569     -3.38392133
  H     -4.07824269     -3.81920300     -3.07697874
  H      1.95728341     -4.31351324     -4.83715935
  H     -5.49640058     -8.12314146     -1.10465599
  H     -3.18263488     -7.35045905     -0.80867637
  P     -0.44583546      1.95733199      4.32161565
  C     -1.18534890      3.61611905      4.39336641
  C     -1.51011650      4.26269958      5.58861755
  C     -2.02005091      5.55214988      5.56931292
  C     -2.20740789      6.21393596      4.36319265
  C     -1.90263228      5.57474861      3.16834033
  C     -1.40542428      4.28184820      3.18637513
  H     -2.59993982      7.22389213      4.35293996
  H     -1.36635463      3.75317563      6.53456242
  H     -1.18389942      3.77284565      2.25480424
  H     -2.06211332      6.07770991      2.22128630
  C      1.32999368      2.26182797      4.58951251
  C      2.22204385      1.27236087      4.16746005
  C      3.58805370      1.43056727      4.33431616
  C      4.08663033      2.59087039      4.91192884
  C      3.21108831      3.58366659      5.32853737
  C      1.84250256      3.42253067      5.17150732
  H      1.16997634      4.20710769      5.49898506
  H      5.15530128      2.72055696      5.03590248
  H      3.59510633      4.49212820      5.77780913
  H      1.83534143      0.36802375      3.71007698
  H     -2.26907955      6.04422103      6.50227426
  C     -0.98831627      1.16356540      5.86824065
  C     -2.30834263      0.70941118      5.94202411
  C     -2.77540536      0.09031102      7.08990558
  C     -1.92817273     -0.09773635      8.17434099
  C     -0.61297167      0.34034755      8.10730546
  C     -0.14349384      0.96713521      6.96228345
  H     -2.29423545     -0.58556066      9.06994932
  H      0.05180790      0.19876712      8.95147408
  H      0.88469738      1.30692215      6.92005845
  H      4.26415967      0.64393656      4.01880142
  H     -3.80375437     -0.24837244      7.13881250
  H     -2.97061554      0.84613832      5.09277328
  P      3.03878254      3.29350964      0.18949834
  C      3.08601045      4.52228568      1.53344631
  C      4.26048160      5.01373771      2.10435841
  C      4.20235347      5.98009949      3.09831029
  C      2.97696822      6.46683288      3.53237621
  C      1.80172134      5.97585701      2.97744064
  C      1.85697508      5.00710176      1.98960501
  H      2.93638745      7.22616382      4.30432528
  H      5.22236400      4.64240316      1.77030413
  H      0.93905568      4.61994563      1.55899949
  H      0.84037675      6.34675499      3.31477940
  C      2.71814846      4.33981300     -1.26440534
  C      1.74769743      3.93938322     -2.18380711
  C      1.48025956      4.70361182     -3.30947064
  C      2.17659261      5.88335122     -3.52839210
  C      3.13360411      6.30172377     -2.61249458
  C      3.40167543      5.53985657     -1.48647875
  H      4.14053043      5.87933459     -0.76899406
  H      1.96898656      6.48059925     -4.40850972
  H      3.67262309      7.22774464     -2.77524077
  H      1.19498534      3.02249237     -2.00869741
  H      5.12106475      6.35787952      3.53177834
  C      4.76391493      2.74728615     -0.00163942
  C      5.27213748      1.88750398      0.97746896
  C      6.55946044      1.38640325      0.87956908
  C      7.35317359      1.71573695     -0.21170981
  C      6.85537072      2.55840913     -1.19606191
  C      5.57109598      3.07276168     -1.09297970
  H      8.35854518      1.31949273     -0.29130654
  H      7.47069508      2.82230278     -2.04853781
  H      5.20160537      3.74068926     -1.86212883
  H      0.72331113      4.37700289     -4.01315190
  H      6.94256234      0.73061248      1.65279740
  H      4.64800685      1.61571569      1.82269459
  P      3.89336395     -1.91150392     -1.64685564
  C      4.78797740     -1.23591368     -3.07457572
  C      5.93783207     -0.45525717     -2.94581290
  C      6.57020121      0.05217937     -4.07149761
  C      6.05947595     -0.20423377     -5.33627092
  C      4.89492996     -0.94935072     -5.47383270
  C      4.25676600     -1.45124361     -4.35198720
  H      6.56250431      0.18303076     -6.21434084
  H      6.34580791     -0.24878189     -1.96265291
  H      3.34085639     -2.02304195     -4.46315147
  H      4.48084586     -1.13612772     -6.45798059
  C      3.74045404     -3.68957709     -2.01698953
  C      2.86825242     -4.43824063     -1.22122514
  C      2.74138042     -5.80503923     -1.41016543
  C      3.46629630     -6.44203020     -2.40811036
  C      4.33028386     -5.70756588     -3.20750783
  C      4.47485691     -4.34244739     -3.00900230
  H      5.16472479     -3.78449909     -3.63102790
  H      3.35811871     -7.50954047     -2.55954999
  H      4.90254136     -6.19857329     -3.98595343
  H      2.29116434     -3.94398211     -0.44557116
  H      7.46897060      0.64748748     -3.95839361
  C      5.07708863     -1.94950343     -0.26609642
  C      4.65878212     -1.51883284      0.99334350
  C      5.50214480     -1.61516685      2.08977331
  C      6.78084833     -2.13396071      1.93815275
  C      7.20953606     -2.56260620      0.68813829
  C      6.36301021     -2.48128729     -0.40554495
  H      7.44132015     -2.20874970      2.79389490
  H      8.20551745     -2.97210812      0.56739166
  H      6.69691358     -2.83837498     -1.37343339
  H      2.07342063     -6.37653778     -0.77803847
  H      5.15921999     -1.28579353      3.06426828
  H      3.66187745     -1.10707355      1.11226615
