246
Energy =   -372.45301422 au
 Au     -0.48126337      0.15671772      2.47112409
 Au     -0.58683969      0.05533599     -2.84522272
 Au      2.02390140      1.27185295      1.49742844
 Au     -0.03885256      2.72778558      1.04111520
 Au      0.41601860     -2.18903810      1.24156175
 Au     -2.21656790     -1.60146622      1.17635606
 Au      1.23452678      1.56189046     -1.45617297
 Au     -0.46137537      0.02565591     -0.23706543
  P      1.62792468     -4.08984570      0.44965909
  C      3.27993593     -4.64769790      0.97065369
  C      3.47614449     -5.79015758      1.74848100
  C      4.75778772     -6.17846353      2.11019756
  C      5.85688636     -5.43243900      1.70638916
  C      5.67090785     -4.28086027      0.95171458
  C      4.39178292     -3.88614427      0.59544232
  H      6.85700820     -5.74576381      1.98123988
  H      2.62544450     -6.38408484      2.06222007
  H      4.25023526     -2.98280350      0.01231875
  H      6.52293526     -3.68821349      0.63812571
  C      1.75788187     -3.99854012     -1.36778952
  C      0.71556631     -3.37683577     -2.06148465
  C      0.74977872     -3.26362932     -3.44091215
  C      1.82771614     -3.76757165     -4.15630177
  C      2.86437990     -4.39641821     -3.48137676
  C      2.83029926     -4.51354137     -2.09927253
  H      3.64695507     -5.01121257     -1.59012200
  H      1.85324598     -3.67487921     -5.23591040
  H      3.70387781     -4.80448018     -4.03217021
  H     -0.13253747     -2.98313265     -1.51203336
  H      4.89783099     -7.07285649      2.70599554
  C      0.54484875     -5.52642622      0.71215282
  C     -0.41168383     -5.47209429      1.72808041
  C     -1.27356450     -6.53475443      1.94617366
  C     -1.19141010     -7.66761872      1.14839830
  C     -0.24521800     -7.73371816      0.13393516
  C      0.61813368     -6.67221664     -0.08535501
  H     -1.86694210     -8.49838533      1.31527134
  H     -0.18022473     -8.61670413     -0.49113775
  H      1.35150998     -6.72813018     -0.88217488
  H     -0.06922706     -2.78208087     -3.96195587
  H     -2.01438576     -6.47495653      2.73547680
  H     -0.47821368     -4.58664510      2.35206145
  P     -1.83055477      4.27367377      0.69063792
  C     -3.53303757      3.63260305      0.82825317
  C     -4.59296112      4.38556923      1.34006466
  C     -5.86348341      3.83710562      1.43992481
  C     -6.09438070      2.53187602      1.02913554
  C     -5.04925390      1.77629222      0.51546106
  C     -3.77819970      2.31927969      0.42170336
  H     -7.08552681      2.10118659      1.11033831
  H     -4.42396446      5.40615905      1.66363901
  H     -2.96211201      1.72007671      0.02885982
  H     -5.22676056      0.75894227      0.18761633
  C     -1.78895430      5.08845810     -0.93677703
  C     -0.53280836      5.38787517     -1.47149649
  C     -0.42045641      6.05123997     -2.68195823
  C     -1.56271717      6.41261773     -3.38425803
  C     -2.81590945      6.10609978     -2.87078881
  C     -2.93101909      5.44771068     -1.65489149
  H     -3.91370721      5.21523974     -1.26064003
  H     -1.47545216      6.93266562     -4.33108737
  H     -3.71033882      6.39310852     -3.41167908
  H      0.36170975      5.10196475     -0.92684704
  H     -6.67498932      4.43349629      1.84034704
  C     -1.79885284      5.66738962      1.85902346
  C     -1.28048824      5.43576176      3.13579617
  C     -1.24525779      6.44984543      4.07910142
  C     -1.71886321      7.71434526      3.75551728
  C     -2.22384333      7.96041045      2.48595190
  C     -2.26502319      6.94608725      1.54162165
  H     -1.68828507      8.50967538      4.49087997
  H     -2.58728252      8.94828837      2.22767411
  H     -2.65374505      7.14955969      0.55015997
  H      0.55975946      6.28939366     -3.07789175
  H     -0.84268755      6.25385285      5.06629934
  H     -0.89844542      4.45121686      3.38603654
  P     -1.04087954      0.36026002      4.80910282
  C     -2.62909911      1.18416521      5.14608923
  C     -3.47993909      0.80192454      6.18640022
  C     -4.66371556      1.48818008      6.41066824
  C     -5.01429971      2.56184699      5.60189180
  C     -4.18123276      2.94127710      4.55752591
  C     -3.00167034      2.25258582      4.32734202
  H     -5.93620939      3.10132749      5.78419004
  H     -3.21878309     -0.03971194      6.81762357
  H     -2.35929408      2.54184443      3.50140855
  H     -4.45313744      3.77285842      3.91773441
  C      0.12740343      1.12237863      5.98012134
  C      1.39866504      1.47804935      5.52561103
  C      2.32003373      2.05775393      6.38336210
  C      1.98043592      2.29420427      7.70796016
  C      0.71617559      1.95236798      8.17030341
  C     -0.20646550      1.37221659      7.31478590
  H     -1.19322810      1.11444126      7.68255099
  H      2.69958774      2.74805717      8.37963595
  H      0.44620870      2.13972484      9.20306677
  H      1.66615499      1.30044695      4.48859111
  H     -5.31428845      1.18457680      7.22255163
  C     -1.30496645     -1.33016445      5.42855748
  C     -2.29190035     -2.09881431      4.80143164
  C     -2.46771366     -3.43242508      5.12706014
  C     -1.65537600     -4.02437640      6.08658121
  C     -0.67445963     -3.27301133      6.71803594
  C     -0.49465939     -1.93563596      6.38962959
  H     -1.78774277     -5.06958663      6.33998265
  H     -0.04148692     -3.72876982      7.47061976
  H      0.27748989     -1.35972747      6.88669716
  H      3.30392321      2.32636795      6.01647903
  H     -3.23739377     -4.01189617      4.62920515
  H     -2.92891690     -1.64048989      4.05110436
  P     -1.12003713     -0.18175461     -5.14799233
  C     -1.65591732      1.40664052     -5.85217653
  C     -1.49297370      1.75072619     -7.19629970
  C     -1.91247082      2.98888961     -7.65858208
  C     -2.49965042      3.89847360     -6.78883084
  C     -2.66479752      3.56702972     -5.45014867
  C     -2.24083384      2.33315441     -4.98526936
  H     -2.82668828      4.86533597     -7.15286188
  H     -1.02659734      1.05164867     -7.88094087
  H     -2.35706638      2.08140613     -3.93577022
  H     -3.11732481      4.27396550     -4.76436225
  C     -2.48179271     -1.33544932     -5.50547522
  C     -2.85258043     -2.24821317     -4.51549944
  C     -3.88039945     -3.15189373     -4.73499446
  C     -4.55999655     -3.14743338     -5.94494066
  C     -4.20713259     -2.23757911     -6.93349548
  C     -3.17515219     -1.33793548     -6.71868177
  H     -2.90789700     -0.62949366     -7.49466642
  H     -5.36726647     -3.84966186     -6.11669246
  H     -4.73920443     -2.22893317     -7.87762519
  H     -2.33693686     -2.23937575     -3.56080357
  H     -1.77905574      3.24487182     -8.70322065
  C      0.23224329     -0.70051281     -6.24743601
  C      1.32976223      0.15590365     -6.38659323
  C      2.41905535     -0.21405573     -7.15739970
  C      2.43942487     -1.45391811     -7.78356756
  C      1.36335185     -2.31852074     -7.63883446
  C      0.26531885     -1.94651200     -6.87592119
  H      3.29352476     -1.74467404     -8.38373743
  H      1.37309659     -3.28558017     -8.12819544
  H     -0.57441959     -2.62483775     -6.77668646
  H     -4.15603170     -3.85412104     -3.95590668
  H      3.25721011      0.46480204     -7.26578359
  H      1.32351085      1.12099735     -5.89011537
  P      4.00801690      0.18403938      2.28450774
  C      3.79148799     -1.38262838      3.19636859
  C      4.82960663     -2.29401889      3.40401766
  C      4.61062929     -3.45864505      4.12452445
  C      3.34892961     -3.74761006      4.62539391
  C      2.30751677     -2.85308268      4.42274931
  C      2.53358076     -1.67614850      3.72635971
  H      3.17797236     -4.66673949      5.17324515
  H      5.81371907     -2.09586531      2.99496282
  H      1.72523397     -0.96421368      3.60641883
  H      1.31911906     -3.06483190      4.81385596
  C      4.84859501      1.26751597      3.47889604
  C      4.81851685      2.63996005      3.21419894
  C      5.41679840      3.54139556      4.07873626
  C      6.04726043      3.08461919      5.22907702
  C      6.07541297      1.72489023      5.50797877
  C      5.48024630      0.81996482      4.64108277
  H      5.50243618     -0.23825125      4.87460303
  H      6.51168661      3.78836165      5.90962862
  H      6.56246268      1.36448319      6.40662413
  H      4.31916257      2.99857861      2.31998497
  H      5.42945638     -4.15027012      4.28471011
  C      5.30344049     -0.20526114      1.06371745
  C      4.90012757     -0.57029239     -0.22318643
  C      5.83886735     -0.91257614     -1.18501062
  C      7.19301870     -0.87579337     -0.87918657
  C      7.60518267     -0.48964611      0.38900637
  C      6.66817599     -0.15814719      1.35633241
  H      7.92561605     -1.13979030     -1.63269724
  H      8.66138421     -0.44839168      0.62819277
  H      6.99853403      0.14713807      2.34265645
  H      5.38562976      4.60220960      3.85821080
  H      5.51278180     -1.20565601     -2.17603257
  H      3.84277867     -0.57676076     -0.47086310
  P      3.06005816      2.57804526     -2.54506915
  C      4.34046210      3.27886093     -1.46627849
  C      5.58261173      2.67085454     -1.27598688
  C      6.46996351      3.16625592     -0.33238779
  C      6.12956776      4.27183535      0.43402338
  C      4.89294996      4.88186592      0.25785533
  C      4.00127492      4.38417433     -0.67792427
  H      6.82422163      4.65705999      1.17113134
  H      5.85726768      1.80438960     -1.86658532
  H      3.03016960      4.85288877     -0.80258769
  H      4.62206620      5.74501451      0.85486859
  C      2.61757306      3.88048356     -3.73310325
  C      1.42839359      3.71598771     -4.44967794
  C      1.05170303      4.63731884     -5.41302818
  C      1.85248030      5.74481620     -5.66307783
  C      3.02750575      5.92547058     -4.94615458
  C      3.41276185      4.99904089     -3.98830369
  H      4.33283307      5.14677557     -3.43455188
  H      1.55744076      6.46858804     -6.41360381
  H      3.65139502      6.79123112     -5.13530901
  H      0.79299962      2.86024936     -4.24353958
  H      7.42997537      2.68204933     -0.19392208
  C      3.92542496      1.37150517     -3.59848753
  C      3.52847728      0.03421601     -3.57569005
  C      4.15982512     -0.90678105     -4.37533961
  C      5.19647308     -0.52055823     -5.21399962
  C      5.59411194      0.81008949     -5.25364575
  C      4.96352271      1.75082117     -4.45510715
  H      5.69048152     -1.25455903     -5.83963835
  H      6.39873672      1.11638061     -5.91183802
  H      5.27436859      2.78884292     -4.49730858
  H      0.12836758      4.49556832     -5.96340181
  H      3.83470628     -1.94053803     -4.34711369
  H      2.71704302     -0.27159687     -2.92438908
  P     -4.40037146     -2.38969642      0.68223315
  C     -4.55618660     -4.19554298      0.59937117
  C     -4.79479278     -4.94031347      1.75826209
  C     -4.80581177     -6.32568374      1.71282354
  C     -4.56176395     -6.98652039      0.51587173
  C     -4.29871425     -6.25678704     -0.63567806
  C     -4.29030639     -4.87164015     -0.59497244
  H     -4.57454892     -8.06950309      0.48121104
  H     -4.98018916     -4.43070116      2.69768929
  H     -4.08336354     -4.30759432     -1.49828027
  H     -4.10015276     -6.76794758     -1.57066741
  C     -5.00035966     -1.80222284     -0.93591878
  C     -4.26571983     -0.82620641     -1.61226921
  C     -4.71355013     -0.30442591     -2.81574995
  C     -5.90120134     -0.76127439     -3.36886192
  C     -6.63405885     -1.74320766     -2.71480626
  C     -6.19216115     -2.25847009     -1.50632195
  H     -6.77533939     -3.02100367     -1.00276935
  H     -6.25241461     -0.35740921     -4.31107607
  H     -7.55880654     -2.10768640     -3.14671770
  H     -3.33063246     -0.47473305     -1.19028042
  H     -5.00707223     -6.89128097      2.61522692
  C     -5.67955822     -1.83872564      1.85124633
  C     -5.39544812     -0.73756201      2.66338135
  C     -6.34479038     -0.24654823      3.54530805
  C     -7.58947262     -0.85430565      3.63394870
  C     -7.88065716     -1.95406478      2.83772899
  C     -6.93545545     -2.44411782      1.95028696
  H     -8.33153483     -0.47277359      4.32537339
  H     -8.85023780     -2.43332374      2.90681491
  H     -7.17261008     -3.30411625      1.33441421
  H     -4.13053063      0.45700323     -3.32156061
  H     -6.11055497      0.61086960      4.16583614
  H     -4.42189671     -0.26172941      2.59892394
