246
Energy =   -372.45004355 au
 Au      1.96882710     -0.38402106     -0.26333006
 Au     -1.63708943     -1.20325571      1.38378918
 Au      0.39513614      0.76468316     -2.19745412
 Au      2.43109528     -2.93876839      0.13683251
 Au      1.61778889      2.42875233     -0.54197517
 Au     -2.91022001      1.09560669      1.26028825
 Au     -0.33614875      1.01034138      0.63681487
 Au      1.27164501     -1.54947649      2.07890862
  P     -0.77357434     -0.34946051     -3.92557397
  C     -1.42902133      0.60328458     -5.32683043
  C     -0.53568380      1.42538329     -6.02199107
  C     -0.97659230      2.21863656     -7.06796232
  C     -2.31676669      2.20297606     -7.43380894
  C     -3.21116755      1.39074515     -6.75054208
  C     -2.77448022      0.59826679     -5.69846794
  H     -2.66288354      2.82295989     -8.25229096
  H      0.51231455      1.43261478     -5.74074406
  H     -3.48132044     -0.02836145     -5.16691003
  H     -4.25569551      1.36922037     -7.03911006
  C     -2.20149832     -1.27039562     -3.27204366
  C     -2.86999789     -0.74070646     -2.16586430
  C     -3.94787711     -1.40429932     -1.60306471
  C     -4.37207440     -2.61346402     -2.13700775
  C     -3.71744323     -3.14980497     -3.23744214
  C     -2.64020831     -2.48496950     -3.80428381
  H     -2.13417224     -2.91334039     -4.66208655
  H     -5.21060157     -3.13770578     -1.69368363
  H     -4.04543685     -4.09393883     -3.65661613
  H     -2.54151080      0.20380125     -1.74719279
  H     -0.27326582      2.84966724     -7.59894923
  C      0.27542235     -1.62086118     -4.69415814
  C      1.25065938     -2.23440126     -3.90290175
  C      2.07426055     -3.21876151     -4.42686214
  C      1.94502159     -3.59322408     -5.75785954
  C      0.98950000     -2.98153048     -6.55771828
  C      0.15722155     -2.00450455     -6.03198670
  H      2.59238115     -4.35771535     -6.17100579
  H      0.88953293     -3.26705443     -7.59838236
  H     -0.58439161     -1.53158492     -6.66538053
  H     -4.45557324     -0.97563828     -0.74590532
  H      2.82100880     -3.68941555     -3.79695951
  H      1.36879554     -1.92838054     -2.86847319
  P      1.47000235      4.50347374      0.81449198
  C      0.12663560      5.51056173      0.09844269
  C     -0.18574705      6.78003884      0.59730602
  C     -1.22583512      7.51413515      0.05197019
  C     -1.97855731      6.99171238     -0.99216079
  C     -1.68358275      5.73168374     -1.49047386
  C     -0.63934305      4.99865368     -0.94780918
  H     -2.79577388      7.56530230     -1.41333439
  H      0.38903809      7.19304969      1.41887457
  H     -0.40823676      4.01626107     -1.34442550
  H     -2.26631643      5.31697913     -2.30490298
  C      2.93446399      5.57696991      0.68267673
  C      4.06620778      5.26418510      1.44479847
  C      5.22337387      6.01810394      1.33141350
  C      5.27779217      7.07979784      0.43731818
  C      4.16875824      7.38629290     -0.33818119
  C      3.00432423      6.64227669     -0.21703990
  H      2.14007687      6.89702283     -0.81957584
  H      6.18479593      7.66526694      0.34477006
  H      4.20582256      8.21254925     -1.03870244
  H      4.03307359      4.42804758      2.13602349
  H     -1.45337984      8.49766425      0.44632522
  C      1.01323123      4.62803928      2.58620658
  C      0.04958807      3.75264142      3.08896426
  C     -0.42599398      3.88676251      4.38345032
  C      0.06886885      4.89017175      5.20588942
  C      1.04355791      5.75328758      4.72609474
  C      1.50904951      5.62908138      3.42569364
  H     -0.30204133      4.99399866      6.21859244
  H      1.43880556      6.53588916      5.36309661
  H      2.26203843      6.31888076      3.06367095
  H      6.08652786      5.77342346      1.93951762
  H     -1.18424555      3.20842402      4.75630478
  H     -0.33652548      2.96081095      2.45395663
  P      2.96171497      3.28634806     -2.53566670
  C      3.20774957      2.00037996     -3.81897729
  C      2.99407116      2.21517924     -5.18183686
  C      3.19891911      1.19113185     -6.09636608
  C      3.63113987     -0.05588593     -5.66727702
  C      3.86798381     -0.27447179     -4.31698587
  C      3.65584864      0.74394751     -3.40215011
  H      3.78644831     -0.85502951     -6.38264631
  H      2.66493212      3.18598323     -5.53339862
  H      3.84588811      0.56550146     -2.34875469
  H      4.21605183     -1.24210794     -3.97441479
  C      4.64116658      3.99637089     -2.45156561
  C      5.36803237      3.84086677     -1.27030857
  C      6.66611757      4.31902757     -1.17422360
  C      7.25127566      4.95978685     -2.25689224
  C      6.54047796      5.10939474     -3.44104114
  C      5.24672055      4.62482748     -3.54435533
  H      4.70533466      4.72794349     -4.47824328
  H      8.26390890      5.33802571     -2.18120801
  H      6.99866132      5.60110797     -4.29129214
  H      4.90872294      3.34472673     -0.42147296
  H      3.02540907      1.37296729     -7.15070558
  C      1.93590139      4.52182762     -3.39179891
  C      0.70178497      4.10586382     -3.90440658
  C     -0.16974082      5.01042902     -4.48664836
  C      0.16471234      6.35786036     -4.54130404
  C      1.37439971      6.78851178     -4.01563746
  C      2.25477763      5.88001682     -3.44574746
  H     -0.51857796      7.06915501     -4.98984144
  H      1.63857411      7.83907276     -4.05073010
  H      3.19947012      6.22927364     -3.04545811
  H      7.21942723      4.19241551     -0.25084662
  H     -1.11224576      4.66344908     -4.89546218
  H      0.42670753      3.05672077     -3.84738833
  P     -4.66029404      2.60303950      0.76868608
  C     -6.37222578      2.20474372      1.22370456
  C     -7.21956169      3.07697762      1.90822945
  C     -8.49557895      2.67064002      2.27046448
  C     -8.93780994      1.39243564      1.96062157
  C     -8.09773926      0.51198880      1.28981256
  C     -6.82179158      0.91188098      0.93072826
  H     -9.93524490      1.07883447      2.24517220
  H     -6.88180169      4.07640178      2.15735333
  H     -6.16137684      0.21945545      0.41693717
  H     -8.43662590     -0.48952090      1.04988953
  C     -4.68597028      2.75619496     -1.04640409
  C     -3.45152192      2.75631974     -1.70221872
  C     -3.37969325      2.86531544     -3.08114476
  C     -4.54578349      2.97556788     -3.82783292
  C     -5.77747667      2.97157240     -3.18897283
  C     -5.85037692      2.86135944     -1.80753583
  H     -6.81789803      2.85377815     -1.31898242
  H     -4.49121630      3.05987910     -4.90695367
  H     -6.68940213      3.05464318     -3.76878294
  H     -2.53999533      2.67293435     -1.11992624
  H     -9.14630714      3.35767485      2.79882677
  C     -4.35439399      4.31432268      1.29992644
  C     -3.40878978      4.53951056      2.30144080
  C     -3.11214604      5.82772064      2.71781967
  C     -3.76126199      6.90864033      2.13774327
  C     -4.70092608      6.69765709      1.13636816
  C     -4.99441061      5.41066732      0.71438292
  H     -3.53227476      7.91698579      2.46211261
  H     -5.20553472      7.54103450      0.67939634
  H     -5.71891176      5.25321171     -0.07695669
  H     -2.41342606      2.85497872     -3.57341064
  H     -2.37129774      5.98596375      3.49348339
  H     -2.90150622      3.69365197      2.75340893
  P      0.69791160     -1.15789442      4.34417080
  C      1.43236448      0.41354941      4.89936105
  C      1.14802499      0.97318763      6.14886298
  C      1.74766615      2.15996095      6.53792138
  C      2.63519925      2.80800203      5.68808481
  C      2.91810312      2.26632536      4.44265921
  C      2.32162947      1.07761162      4.05317817
  H      3.10047780      3.73728582      5.99504431
  H      0.45312408      0.47884314      6.81806960
  H      2.54508906      0.65682666      3.07899030
  H      3.60446616      2.76969249      3.77082609
  C      1.32633264     -2.40284502      5.50924392
  C      2.30230506     -3.29190711      5.05335433
  C      2.82866556     -4.25910581      5.89506075
  C      2.38332759     -4.35354216      7.20621820
  C      1.41627813     -3.47278007      7.67264885
  C      0.89158915     -2.50166894      6.83450209
  H      0.13874988     -1.81918379      7.21189256
  H      2.78953539     -5.11220856      7.86467067
  H      1.06772938     -3.54128357      8.69656241
  H      2.64636404     -3.22600391      4.02631151
  H      1.52046091      2.58262859      7.50970342
  C     -1.06385542     -0.95893507      4.74988089
  C     -1.68582779      0.26327371      4.47558450
  C     -3.04555375      0.43300886      4.68580264
  C     -3.81032838     -0.62240355      5.16534294
  C     -3.20659068     -1.84497561      5.43054224
  C     -1.84663474     -2.01626018      5.21811494
  H     -4.87227642     -0.49132080      5.33616018
  H     -3.79769091     -2.67155083      5.80761681
  H     -1.38998978     -2.97706754      5.42463088
  H      3.58489114     -4.94128966      5.52318031
  H     -3.50439615      1.39363747      4.48187220
  H     -1.09063325      1.08981264      4.10737844
  P     -2.14955303     -3.52881863      1.44511346
  C     -3.96500709     -3.64600009      1.48505919
  C     -4.72576844     -4.53691941      0.72636473
  C     -6.11200944     -4.49184832      0.77065258
  C     -6.75937799     -3.55710640      1.56669349
  C     -6.01429896     -2.66134160      2.32206946
  C     -4.63091564     -2.70388574      2.27598446
  H     -7.84209307     -3.52267666      1.59423354
  H     -4.23866591     -5.26616700      0.09000599
  H     -4.05190199     -1.99392153      2.85663771
  H     -6.51029299     -1.92268851      2.94155193
  C     -1.55230888     -4.57374594      2.81212643
  C     -0.18783698     -4.87955058      2.84336395
  C      0.34488726     -5.62669210      3.87985648
  C     -0.47540030     -6.06585643      4.91166383
  C     -1.82914161     -5.76107831      4.89524744
  C     -2.36795406     -5.02042045      3.85206367
  H     -3.42738892     -4.79102658      3.84386224
  H     -0.05746272     -6.64432747      5.72707164
  H     -2.47283330     -6.10350005      5.69711063
  H      0.45686422     -4.53390149      2.04070242
  H     -6.68842739     -5.19121262      0.17623504
  C     -1.62756546     -4.49453245     -0.00353280
  C     -1.01093024     -3.84334717     -1.07198883
  C     -0.62530168     -4.55186317     -2.19965607
  C     -0.86639677     -5.91507787     -2.28263483
  C     -1.46890379     -6.57564255     -1.22047357
  C     -1.83073348     -5.87642305     -0.08071866
  H     -0.57582504     -6.46448342     -3.17030852
  H     -1.65024603     -7.64239910     -1.27647414
  H     -2.26749514     -6.40553004      0.75867690
  H      1.40291990     -5.86230725      3.88657529
  H     -0.14222656     -4.03631727     -3.02056329
  H     -0.84014240     -2.77308499     -1.01921967
  P      3.36230031     -5.11498749     -0.15677667
  C      4.67564051     -5.08546546     -1.41602839
  C      5.45326962     -6.20768725     -1.71821497
  C      6.45164952     -6.13095510     -2.67576466
  C      6.69210508     -4.93602754     -3.34214510
  C      5.93320025     -3.81315402     -3.04399292
  C      4.93274184     -3.88861506     -2.08705705
  H      7.47394485     -4.87975744     -4.09036872
  H      5.27560729     -7.14318443     -1.19955109
  H      4.34487757     -3.00817362     -1.84766171
  H      6.12108214     -2.87548804     -3.55484550
  C      2.38962576     -6.60060716     -0.55862221
  C      1.64525871     -7.22696715      0.44634773
  C      0.90069645     -8.36205150      0.16935740
  C      0.87488968     -8.88120144     -1.11913042
  C      1.57803746     -8.24475467     -2.13305404
  C      2.32444377     -7.10853310     -1.85830621
  H      2.87335188     -6.62220065     -2.65694865
  H      0.30542003     -9.77803271     -1.33237466
  H      1.55276238     -8.63860394     -3.14254434
  H      1.66400715     -6.83032272      1.45582787
  H      7.04691331     -7.00790143     -2.90213972
  C      4.25817800     -5.58389148      1.35845625
  C      4.67580333     -4.55714804      2.20885195
  C      5.38985663     -4.83582920      3.36332247
  C      5.69149492     -6.15143503      3.69028459
  C      5.28151092     -7.18139214      2.85448365
  C      4.57398036     -6.90290574      1.69521830
  H      6.24809580     -6.37275398      4.59328664
  H      5.51706295     -8.20954671      3.10377007
  H      4.26300177     -7.71731393      1.05109487
  H      0.34325315     -8.84616881      0.96295313
  H      5.71430725     -4.02501628      4.00542667
  H      4.43984063     -3.52841431      1.95665547
