246
Energy =   -372.43149612 au
 Au      0.56613844     -0.17638358      1.91201214
 Au     -0.56910223      3.23720137     -1.18447437
 Au     -3.02517192     -0.89017855     -1.00251720
 Au     -0.68848759      2.70280803      1.48227042
 Au      1.50591913      1.89226105      0.07431906
 Au     -0.68298551     -2.00426798     -0.04435345
 Au     -0.98678146      0.61021489     -0.40794495
 Au      3.17590437      0.26618067      1.58618435
  P      3.70838819      2.87416817     -0.37372360
  C      3.55416863      4.48199896     -1.22650495
  C      4.34644872      5.58954267     -0.91351997
  C      4.17252255      6.79056043     -1.58440093
  C      3.20728470      6.90583193     -2.57466857
  C      2.41294739      5.81271219     -2.89249244
  C      2.58368364      4.61290484     -2.22203637
  H      3.07010436      7.84645848     -3.09477308
  H      5.09873746      5.51748340     -0.13674542
  H      1.95834597      3.76252272     -2.47257781
  H      1.65460116      5.89657047     -3.66184347
  C      5.02337584      2.00261247     -1.28854103
  C      5.09778896      0.61236635     -1.19242233
  C      6.08942952     -0.09811256     -1.84970073
  C      7.01822274      0.57686606     -2.63127963
  C      6.94641372      1.95828259     -2.74983729
  C      5.95718430      2.66899182     -2.08705281
  H      5.90786339      3.74652699     -2.19317065
  H      7.79226005      0.02566083     -3.15179037
  H      7.66549838      2.48840413     -3.36330967
  H      4.36065826      0.07986963     -0.59965139
  H      4.79371501      7.64085061     -1.32814560
  C      4.50355410      3.34492704      1.19640562
  C      3.68337600      3.56497579      2.30597582
  C      4.22082794      3.97752184      3.51519785
  C      5.58845271      4.18650963      3.63027269
  C      6.41317920      3.97361383      2.53445852
  C      5.87960941      3.54751982      1.32774082
  H      6.01078891      4.51427130      4.57272858
  H      7.48118845      4.13627258      2.61936651
  H      6.53666607      3.36634580      0.48476660
  H      6.12959303     -1.17764374     -1.75960579
  H      3.57020044      4.14499850      4.36589043
  H      2.61263345      3.41737673      2.21397356
  P     -1.62974754      2.66539138      3.65028923
  C     -1.23102061      1.03526727      4.35521333
  C     -0.36896286      0.86976092      5.43828910
  C     -0.02254746     -0.40128930      5.87491536
  C     -0.52689107     -1.52307635      5.23525385
  C     -1.37781207     -1.37399224      4.14691934
  C     -1.72304985     -0.10462516      3.70354846
  H     -0.25880677     -2.51382818      5.58207730
  H      0.03239894      1.73883314      5.94671756
  H     -2.40691152      0.00754142      2.86963731
  H     -1.78047961     -2.24659618      3.64580233
  C     -3.43974494      2.78019419      3.76106104
  C     -4.08183371      3.72802491      2.95903168
  C     -5.45862854      3.87819097      3.01109950
  C     -6.21315044      3.07457880      3.85644925
  C     -5.58596447      2.12221991      4.64885641
  C     -4.20739444      1.97515380      4.60575580
  H     -3.72578695      1.23208319      5.23085508
  H     -7.28967426      3.19154726      3.89798809
  H     -6.17105932      1.49577613      5.31209244
  H     -3.49431851      4.35211416      2.29357850
  H      0.64733947     -0.51337070      6.71969301
  C     -0.98831070      3.85542897      4.86026255
  C      0.27147458      4.41412022      4.62914487
  C      0.81680460      5.31623501      5.52810887
  C      0.10595169      5.67749120      6.66481410
  C     -1.15036228      5.13447746      6.89930674
  C     -1.69789203      4.22830388      6.00484488
  H      0.52915210      6.38751764      7.36550160
  H     -1.70865439      5.41926803      7.78345020
  H     -2.68007177      3.80914758      6.19219298
  H     -5.94333302      4.62552391      2.39363136
  H      1.79476292      5.74340940      5.33755386
  H      0.82018609      4.13768901      3.73426376
  P     -5.20920939     -1.51110956     -1.66819331
  C     -5.67247399     -0.98995257     -3.34495501
  C     -5.70861534     -1.88567257     -4.41608221
  C     -5.94687256     -1.43074340     -5.70437294
  C     -6.14610426     -0.07786862     -5.94293026
  C     -6.10327806      0.82277406     -4.88662606
  C     -5.85992203      0.37240694     -3.59965505
  H     -6.33224534      0.27488514     -6.95041569
  H     -5.55644190     -2.94453574     -4.24006894
  H     -5.81692497      1.08067425     -2.77976708
  H     -6.25262804      1.88159100     -5.06562283
  C     -6.40607392     -0.67833203     -0.58180532
  C     -5.99603808     -0.39357618      0.72344756
  C     -6.84261012      0.25552071      1.60735141
  C     -8.11375622      0.63541150      1.19610294
  C     -8.53290316      0.35858423     -0.09837813
  C     -7.68769135     -0.29492130     -0.98301762
  H     -8.02262613     -0.49808931     -1.99369077
  H     -8.77561486      1.14885861      1.88368717
  H     -9.52438856      0.65267016     -0.42257069
  H     -4.99869935     -0.67987667      1.04218169
  H     -5.97693271     -2.13779917     -6.52536676
  C     -5.66524601     -3.27170555     -1.60195659
  C     -4.66763018     -4.21646115     -1.35808669
  C     -4.96756404     -5.56980295     -1.32754232
  C     -6.27299146     -5.99433644     -1.52973938
  C     -7.27644228     -5.06207832     -1.76176002
  C     -6.97767827     -3.70975000     -1.80045988
  H     -6.51014378     -7.05137292     -1.50397091
  H     -8.29746542     -5.39084462     -1.91624246
  H     -7.76567320     -2.98832762     -1.98512223
  H     -6.50791951      0.47042600      2.61603736
  H     -4.18068051     -6.29169705     -1.13992173
  H     -3.65096261     -3.88296230     -1.18129773
  P     -0.63223334     -4.13772158      1.03081426
  C      0.26609812     -4.25145917      2.61456240
  C     -0.12234914     -5.09271462      3.65892045
  C      0.60366600     -5.12567447      4.84040110
  C      1.72364082     -4.31962920      4.99919600
  C      2.11617159     -3.47567329      3.96912707
  C      1.39267420     -3.44542574      2.78824962
  H      2.28727962     -4.34582697      5.92440308
  H     -0.99690247     -5.72383457      3.55153119
  H      1.69761140     -2.78445535      1.98495378
  H      2.98403022     -2.83668415      4.08694157
  C      0.11514054     -5.44296076      0.00978096
  C     -0.60079880     -5.95995757     -1.07470598
  C     -0.01383634     -6.87207025     -1.93663857
  C      1.29920966     -7.27632804     -1.73403630
  C      2.02299314     -6.76109327     -0.66756304
  C      1.43924824     -5.84647210      0.19507681
  H      2.01439241     -5.44792631      1.02340558
  H      1.75799916     -7.99022438     -2.40778893
  H      3.04996409     -7.06897012     -0.50731990
  H     -1.62793131     -5.65173338     -1.23707699
  H      0.29115114     -5.78433682      5.64230615
  C     -2.29801273     -4.75223964      1.43035393
  C     -3.30582564     -3.81732104      1.68059335
  C     -4.58658933     -4.22460225      2.01829482
  C     -4.88144465     -5.57815637      2.10746668
  C     -3.89115458     -6.51858286      1.85652194
  C     -2.60781319     -6.11245820      1.52161600
  H     -5.88323556     -5.89995327      2.36622234
  H     -4.11779465     -7.57633707      1.92227349
  H     -1.84410528     -6.85550599      1.32261306
  H     -0.58364588     -7.26786842     -2.76938088
  H     -5.35549454     -3.48329159      2.20426959
  H     -3.08384848     -2.75836797      1.60052875
  P     -2.22202665      3.82634350     -2.87090382
  C     -2.12815706      5.47049586     -3.63451308
  C     -1.01962879      5.75574799     -4.44130129
  C     -0.85556620      7.01503687     -4.99519199
  C     -1.78322190      8.01527290     -4.73434746
  C     -2.86938377      7.75203127     -3.91194979
  C     -3.04108826      6.49108882     -3.36033602
  H     -1.65422870      9.00082211     -5.16571707
  H     -0.28187986      4.98308370     -4.63199559
  H     -3.88969024      6.30166547     -2.71316762
  H     -3.58922973      8.53279075     -3.69536655
  C     -3.90648585      3.67192088     -2.18883796
  C     -4.08948591      3.19090933     -0.89228056
  C     -5.36193439      2.96786991     -0.38907876
  C     -6.47486694      3.23937998     -1.17158823
  C     -6.30880273      3.72730552     -2.46230850
  C     -5.03642053      3.93124563     -2.97264843
  H     -4.91541816      4.28684615     -3.98982425
  H     -7.46994041      3.06545204     -0.77886681
  H     -7.17486312      3.94093300     -3.07772445
  H     -3.22534611      2.98327155     -0.27117710
  H      0.00055992      7.21655930     -5.62862975
  C     -2.36230464      2.63460467     -4.25252472
  C     -2.63956711      1.30859019     -3.90496912
  C     -2.72619040      0.31943257     -4.86902626
  C     -2.54111696      0.64026977     -6.20734304
  C     -2.28214260      1.95419648     -6.56870620
  C     -2.19223821      2.94605564     -5.60168134
  H     -2.60608769     -0.13273491     -6.96402269
  H     -2.14934629      2.21449919     -7.61237570
  H     -1.99944164      3.96766063     -5.90645948
  H     -5.48270239      2.57762305      0.61529078
  H     -2.94233922     -0.70123378     -4.57451461
  H     -2.80317187      1.05315604     -2.86293292
  P      0.84326658     -2.02993076     -2.27778603
  C     -0.30835012     -2.57063863     -3.59216857
  C     -0.09797746     -2.31002341     -4.94985480
  C     -1.03328609     -2.70190332     -5.89524735
  C     -2.19274990     -3.35992916     -5.50517884
  C     -2.40964338     -3.63357308     -4.16180368
  C     -1.47455880     -3.23954345     -3.21792890
  H     -2.92423800     -3.65974380     -6.24635692
  H      0.79913064     -1.79162169     -5.26818495
  H     -1.64534860     -3.45422561     -2.16951020
  H     -3.30807349     -4.15227521     -3.84659794
  C      2.23604569     -3.20659001     -2.40885376
  C      3.31209553     -3.02483089     -1.53276446
  C      4.41591726     -3.86034091     -1.58718984
  C      4.44686454     -4.91155591     -2.49462193
  C      3.37034556     -5.12068593     -3.34493438
  C      2.27232653     -4.27370778     -3.30638468
  H      1.44095205     -4.44250799     -3.98095171
  H      5.30843195     -5.56743907     -2.53547951
  H      3.38634284     -5.94471677     -4.04881707
  H      3.28056166     -2.21536844     -0.80905963
  H     -0.85608604     -2.49079300     -6.94353551
  C      1.54128116     -0.52715119     -3.07879682
  C      0.65183776      0.50505761     -3.39530418
  C      1.09155737      1.66498151     -4.01126558
  C      2.43702385      1.82169971     -4.32032143
  C      3.33153655      0.81030832     -4.00423374
  C      2.89046376     -0.35194381     -3.38684355
  H      2.78239225      2.72222161     -4.81418351
  H      4.38217940      0.91949939     -4.24783636
  H      3.60685077     -1.13290692     -3.16134301
  H      5.25332238     -3.69204465     -0.91969025
  H      0.37903779      2.44121885     -4.26694547
  H     -0.40431538      0.38149148     -3.18456422
  P      5.13883161     -0.43828346      2.78076991
  C      6.71976372      0.46810356      2.78242036
  C      7.26518525      1.05367206      3.92571962
  C      8.48183471      1.71713469      3.85851369
  C      9.16224427      1.81204980      2.65207969
  C      8.62085029      1.24315213      1.50576887
  C      7.40766339      0.57776149      1.56956570
  H     10.11375316      2.32817461      2.60441994
  H      6.74095209      0.98603729      4.87187665
  H      6.98905450      0.13062362      0.67402099
  H      9.14599666      1.31579230      0.56029580
  C      5.66562464     -2.15699110      2.50116566
  C      4.78348499     -3.03218998      1.86625142
  C      5.11127273     -4.36816294      1.69384083
  C      6.33854962     -4.84332017      2.13537200
  C      7.23548085     -3.97689374      2.74591345
  C      6.90336500     -2.64402521      2.93244189
  H      7.60917799     -1.97553999      3.41206989
  H      6.59754348     -5.88666011      1.99913183
  H      8.19830650     -4.34181026      3.08406012
  H      3.83339511     -2.65619276      1.50330785
  H      8.90039280      2.15959397      4.75499447
  C      4.60227777     -0.41842647      4.52086182
  C      3.81559053      0.66165671      4.93203817
  C      3.33055776      0.73506251      6.22714441
  C      3.61025106     -0.28279541      7.13018558
  C      4.38202139     -1.36556570      6.73179454
  C      4.87825907     -1.43453025      5.43806634
  H      3.22757220     -0.23100224      8.14268245
  H      4.60214228     -2.16244580      7.43272566
  H      5.48503107     -2.28257972      5.14208626
  H      4.40665263     -5.03822066      1.21444130
  H      2.72998829      1.58540407      6.53027572
  H      3.58605046      1.45112531      4.22416619
