246
Energy =   -372.46381201 au
 Au     -2.72981560     -2.59263822      0.87288990
 Au     -1.41153882     -0.55481471     -0.31855083
 Au     -2.83725227      0.68319192     -2.22229257
 Au     -0.19683862     -2.92745042      0.35850483
 Au      0.85120194     -0.36325150      1.62597596
 Au      2.81922357      1.41849586      1.35673679
 Au      1.25606637      0.80373882     -0.70353342
 Au     -1.43098318      2.13037207     -0.55998781
  P      0.47120809     -1.47096910      3.71520101
  C     -0.28568684     -0.33655849      4.91648484
  C     -1.35828380      0.43615981      4.45746903
  C     -1.99325223      1.33643068      5.29758683
  C     -1.55170516      1.49115309      6.60542157
  C     -0.47596723      0.74403025      7.06512305
  C      0.15455762     -0.16611583      6.22913591
  H     -2.04185146      2.19914312      7.26312414
  H     -1.68380942      0.33256757      3.42744773
  H      0.99285267     -0.74440830      6.60037244
  H     -0.12432076      0.86841927      8.08273159
  C      1.99953325     -2.08921579      4.47835795
  C      3.22516026     -1.71759556      3.92197500
  C      4.41820088     -2.16903566      4.46405873
  C      4.40236919     -3.00592257      5.57143144
  C      3.18986186     -3.39186868      6.12919231
  C      1.99599334     -2.94146953      5.58797557
  H      1.05424639     -3.25962380      6.02057556
  H      5.33353917     -3.35954195      5.99800319
  H      3.17409438     -4.04989688      6.99012120
  H      3.24142598     -1.06804779      3.05341346
  H     -2.82637714      1.92342095      4.92805630
  C     -0.62411084     -2.92653750      3.73599957
  C     -0.09687889     -4.15902363      3.33649133
  C     -0.90990245     -5.27477431      3.21391752
  C     -2.26745058     -5.17776226      3.48730044
  C     -2.80298101     -3.95956550      3.88398113
  C     -1.99279798     -2.83726059      3.99757787
  H     -2.90620052     -6.04811785      3.39613052
  H     -3.85910023     -3.87869318      4.11298961
  H     -2.42826167     -1.89608877      4.31219301
  H      5.35992985     -1.86743350      4.01956745
  H     -0.47803812     -6.22011118      2.90537334
  H      0.96502659     -4.24454205      3.13987254
  P     -5.03386969     -2.00732666      1.14421515
  C     -6.18563017     -2.66458006     -0.09838368
  C     -7.56509585     -2.44786186     -0.01839268
  C     -8.41348643     -2.97602240     -0.97821191
  C     -7.89947981     -3.73082142     -2.02519869
  C     -6.53195627     -3.95500133     -2.11127418
  C     -5.67995048     -3.42518680     -1.15395151
  H     -8.56519198     -4.14896162     -2.77098615
  H     -7.97194784     -1.86813065      0.80263122
  H     -4.61130631     -3.60277412     -1.22055767
  H     -6.12774118     -4.54938939     -2.92242257
  C     -5.01036600     -0.21126720      0.83608713
  C     -4.25581475      0.58978409      1.69996728
  C     -4.12625010      1.95145682      1.47660266
  C     -4.73012796      2.53324393      0.36800957
  C     -5.45994247      1.74476932     -0.51258519
  C     -5.60205400      0.38323024     -0.27888319
  H     -6.18374084     -0.21673983     -0.96871571
  H     -4.63031496      3.59758529      0.19136970
  H     -5.93289435      2.19170003     -1.37928252
  H     -3.76441495      0.13473021      2.55296134
  H     -9.48109621     -2.80473125     -0.90480466
  C     -5.95290510     -2.20125539      2.70513257
  C     -6.19888036     -3.51184763      3.13269031
  C     -6.86564943     -3.75070904      4.32335351
  C     -7.28841994     -2.68575506      5.10881719
  C     -7.04826767     -1.38380437      4.69417820
  C     -6.38450026     -1.13935907      3.50070839
  H     -7.80734265     -2.87196758      6.04161616
  H     -7.38198787     -0.54928323      5.30011626
  H     -6.21225426     -0.11658341      3.18636080
  H     -3.55222517      2.56057272      2.16563814
  H     -7.05500789     -4.76999824      4.63912522
  H     -5.87666132     -4.34527538      2.51659501
  P     -4.01911140     -0.12127836     -4.11177212
  C     -3.94052133     -1.93420237     -4.24737918
  C     -4.77717509     -2.67476629     -5.08818197
  C     -4.65404556     -4.05392175     -5.16506938
  C     -3.70819803     -4.71748750     -4.39363580
  C     -2.88546736     -3.99507969     -3.54017927
  C     -2.99892152     -2.61525797     -3.47406250
  H     -3.61710255     -5.79566716     -4.45301580
  H     -5.53688561     -2.17227955     -5.67566132
  H     -2.34748406     -2.05519610     -2.81225743
  H     -2.15162770     -4.50531467     -2.92605611
  C     -3.29636974      0.50624269     -5.66035307
  C     -2.57128858      1.69852014     -5.59793705
  C     -1.98208703      2.23224223     -6.73337689
  C     -2.10407450      1.57606070     -7.95035629
  C     -2.81848383      0.38728188     -8.02502166
  C     -3.41195773     -0.14491601     -6.89048714
  H     -3.96160483     -1.07580297     -6.96376428
  H     -1.64098499      1.98833813     -8.83900494
  H     -2.91591553     -0.12924085     -8.97278870
  H     -2.46443024      2.20653230     -4.64506605
  H     -5.30275467     -4.61375290     -5.82856432
  C     -5.79164971      0.25586891     -4.23599214
  C     -6.72172487     -0.55843367     -3.58190308
  C     -8.06526147     -0.21943544     -3.56719762
  C     -8.49796758      0.94047525     -4.19593338
  C     -7.58117277      1.76020652     -4.84032536
  C     -6.23569405      1.42621008     -4.85618483
  H     -9.54871331      1.20489801     -4.18417891
  H     -7.91476809      2.66602036     -5.33324955
  H     -5.52496168      2.07249503     -5.35953425
  H     -1.42475898      3.15970982     -6.66538181
  H     -8.77430272     -0.86526678     -3.06144933
  H     -6.39105240     -1.47012626     -3.09659798
  P      4.76223852      2.34676208      2.29892039
  C      4.87067276      4.15822172      2.24209369
  C      5.31146166      4.94568773      3.30643152
  C      5.32484078      6.32842397      3.19297164
  C      4.89872523      6.94049252      2.02167306
  C      4.45366261      6.16576408      0.95802131
  C      4.43582575      4.78545674      1.07039160
  H      4.90968242      8.02082525      1.93883438
  H      5.64197772      4.47812332      4.22676308
  H      4.07431000      4.17961893      0.24614892
  H      4.11363696      6.63570444      0.04197360
  C      6.26182011      1.75370906      1.45920582
  C      6.56464672      0.39154634      1.55839305
  C      7.66087009     -0.13638454      0.89668776
  C      8.45734466      0.68320914      0.10657388
  C      8.15475286      2.03249485     -0.01312911
  C      7.06427673      2.56724547      0.65839490
  H      6.84181954      3.62399777      0.56496249
  H      9.31349652      0.26981815     -0.41325597
  H      8.77540609      2.67676485     -0.62499430
  H      5.93911606     -0.25351958      2.16728705
  H      5.67018931      6.93041442      4.02535918
  C      5.02368409      1.86737964      4.03087595
  C      3.92548761      1.42779136      4.77275615
  C      4.07361716      1.03533512      6.09338411
  C      5.32667809      1.07135761      6.68952644
  C      6.42802983      1.50103219      5.96062788
  C      6.28172758      1.89649988      4.64014521
  H      5.44621804      0.76008849      7.72058287
  H      7.40809314      1.52612123      6.42255630
  H      7.14763983      2.22031736      4.07387891
  H      7.89485053     -1.18983618      0.99910433
  H      3.21031502      0.69448330      6.65396535
  H      2.94917450      1.38641707      4.30218483
  P     -0.65801072      4.24300026      0.25873079
  C     -2.03098378      5.39437568      0.55422446
  C     -2.22788055      6.07712757      1.75504710
  C     -3.32860920      6.90579340      1.91643990
  C     -4.24430511      7.06275873      0.88588847
  C     -4.06283300      6.38199302     -0.31154156
  C     -2.96895674      5.54707064     -0.47399069
  H     -5.10171901      7.71250985      1.01527320
  H     -1.51811875      5.96277772      2.56618358
  H     -2.83203790      5.00772687     -1.40608377
  H     -4.77629026      6.49875487     -1.11905640
  C      0.46150854      5.14986973     -0.85969293
  C      1.66308052      4.52984889     -1.21353885
  C      2.55065473      5.14182793     -2.08247983
  C      2.24565478      6.38495967     -2.62217974
  C      1.05231092      7.00751178     -2.28561156
  C      0.16466546      6.39692560     -1.41142394
  H     -0.76287683      6.89571631     -1.15630016
  H      2.93563314      6.86251308     -3.30762002
  H      0.80801831      7.97622624     -2.70567666
  H      1.89817908      3.55292167     -0.80232396
  H     -3.46918869      7.43209751      2.85341960
  C      0.28367296      4.23552774      1.81836982
  C      0.13786487      3.15657183      2.69215361
  C      0.83190546      3.12026315      3.89268275
  C      1.67958624      4.16377544      4.23814262
  C      1.83011747      5.24312921      3.37844215
  C      1.14329248      5.27850947      2.17515079
  H      2.22081545      4.13504236      5.17658530
  H      2.48837506      6.06190997      3.64501494
  H      1.27556556      6.12122870      1.50609498
  H      3.47605799      4.64433944     -2.34955713
  H      0.70194028      2.27930476      4.56279152
  H     -0.53318097      2.34528437      2.43147098
  P      1.62341881      1.05223117     -3.06442692
  C      0.86535380     -0.29547806     -4.02399589
  C      0.35424949     -0.13584712     -5.31327571
  C     -0.21096302     -1.21116538     -5.98284579
  C     -0.27487190     -2.45741894     -5.37695845
  C      0.22615474     -2.62632336     -4.09254584
  C      0.78588374     -1.55364005     -3.41995087
  H     -0.71850453     -3.29645206     -5.90001292
  H      0.39669717      0.83365381     -5.79633001
  H      1.17126839     -1.68917700     -2.41465095
  H      0.17989972     -3.59662604     -3.61336379
  C      3.40741628      0.85731250     -3.37457258
  C      4.28355296      1.61400407     -2.58915326
  C      5.65541147      1.49026555     -2.73724505
  C      6.17425552      0.59377454     -3.66330433
  C      5.31512565     -0.17007026     -4.44053749
  C      3.94087121     -0.04038391     -4.30060194
  H      3.27968544     -0.64354735     -4.91193012
  H      7.24708426      0.48912933     -3.77449153
  H      5.71563147     -0.87335608     -5.16144989
  H      3.88210943      2.30024108     -1.85074543
  H     -0.60363837     -1.07278335     -6.98362809
  C      1.19043864      2.55838948     -3.99907021
  C      0.02328017      3.24532588     -3.66168403
  C     -0.34545998      4.39963076     -4.33242618
  C      0.45525854      4.88838149     -5.35694178
  C      1.62119249      4.21773028     -5.70102383
  C      1.98977079      3.06252195     -5.02848607
  H      0.17387513      5.79450393     -5.88013420
  H      2.25063732      4.59756900     -6.49731314
  H      2.90516186      2.55023966     -5.30123675
  H      6.32000548      2.08529506     -2.12092990
  H     -1.25118598      4.92289516     -4.04791727
  H     -0.59819563      2.87418521     -2.85348435
  P      1.79217380     -4.20302688     -0.15100405
  C      3.39777063     -3.44537516     -0.56961462
  C      4.54954172     -4.21167256     -0.78042614
  C      5.75618257     -3.59632818     -1.07426931
  C      5.83977100     -2.21120419     -1.13706014
  C      4.70986430     -1.44129357     -0.90393620
  C      3.49910784     -2.05824080     -0.63655217
  H      6.78497508     -1.73122632     -1.36262294
  H      4.49983685     -5.29206257     -0.70582368
  H      2.61535198     -1.45557563     -0.46669122
  H      4.76837763     -0.35917597     -0.92827750
  C      1.34389337     -5.21509864     -1.59400212
  C      0.08952980     -5.83580873     -1.56546882
  C     -0.35111040     -6.59485279     -2.63770105
  C      0.44605320     -6.72719071     -3.76765281
  C      1.68134310     -6.09696865     -3.81749770
  C      2.12983579     -5.34622652     -2.73985151
  H      3.09498755     -4.85654021     -2.79695249
  H      0.10114151     -7.31565720     -4.60958399
  H      2.30300403     -6.18900927     -4.70056329
  H     -0.54598187     -5.71380864     -0.69457221
  H      6.63862975     -4.20128758     -1.24719164
  C      2.30671177     -5.40936744      1.11758052
  C      3.11661582     -4.94867156      2.16329832
  C      3.47550243     -5.79248032      3.20207729
  C      3.02308234     -7.10537339      3.22042839
  C      2.21444004     -7.56984856      2.19283334
  C      1.85425617     -6.72879132      1.14958588
  H      3.30205514     -7.76473113      4.03371990
  H      1.86170004     -8.59463005      2.19939576
  H      1.22707262     -7.10788661      0.35104166
  H     -1.31810891     -7.08246240     -2.59183153
  H      4.10767623     -5.42070872      4.00066646
  H      3.47499753     -3.92413361      2.15530060
