246
Energy =   -372.46043717 au
 Au      0.74039265      0.33427329      2.22429659
 Au      0.14565207      2.77749195      1.21958428
 Au     -0.46972083      0.98657321     -2.98531271
 Au     -2.30419811     -0.32295826     -1.56637573
 Au      0.17168828     -1.51748786     -1.95800425
 Au      2.11089314     -1.50212112      0.23640497
 Au      0.12057846     -3.10676506      0.38621570
 Au      0.00373745      0.63523576     -0.25815334
  P      4.16226279     -0.25716757      0.20753365
  C      3.94784916      1.53405561      0.44875151
  C      4.40133554      2.20885421      1.58324979
  C      4.09683123      3.54801216      1.77884965
  C      3.32978265      4.23158410      0.84685092
  C      2.86665384      3.56965511     -0.28459619
  C      3.17186624      2.23194576     -0.48114602
  H      3.09203065      5.27803938      0.99759318
  H      5.00336991      1.68412797      2.31560275
  H      2.80623933      1.72216715     -1.36650604
  H      2.27498754      4.09997960     -1.02077189
  C      5.11405376     -0.39910206     -1.33826178
  C      5.12683309     -1.64730713     -1.96759116
  C      5.87082971     -1.84955271     -3.11966127
  C      6.60480171     -0.80308476     -3.66367374
  C      6.59475350      0.44209845     -3.04866372
  C      5.85559737      0.64579559     -1.89218205
  H      5.85611771      1.62028981     -1.41730889
  H      7.18805202     -0.95942513     -4.56337223
  H      7.17401610      1.25769091     -3.46598139
  H      4.55285636     -2.46476758     -1.54328613
  H      4.45828420      4.05845026      2.66439682
  C      5.38867443     -0.74971468      1.45756828
  C      5.03174484     -1.70828120      2.40637553
  C      5.94561727     -2.13913091      3.35512740
  C      7.22891397     -1.61124602      3.37068992
  C      7.59664544     -0.65604080      2.43148880
  C      6.68732249     -0.23042572      1.47690101
  H      7.94483175     -1.94705447      4.11160244
  H      8.59971725     -0.24568600      2.43855592
  H      6.98600436      0.50384259      0.73683045
  H      5.87552656     -2.82434863     -3.59390575
  H      5.65413807     -2.88748492      4.08297026
  H      4.02790432     -2.11944495      2.39405951
  P      0.74672516     -2.82388426     -3.93366299
  C     -0.62626238     -3.47245070     -4.93916070
  C     -0.54302267     -4.66804195     -5.65568202
  C     -1.60477150     -5.08814143     -6.44228180
  C     -2.76056382     -4.32320274     -6.52608898
  C     -2.85952740     -3.13866730     -5.80716530
  C     -1.80261961     -2.72073451     -5.01470853
  H     -3.58466766     -4.65028652     -7.14892591
  H      0.35773223     -5.26844507     -5.60186258
  H     -1.88537620     -1.79857784     -4.44816684
  H     -3.76150113     -2.53994748     -5.86271859
  C      1.86856966     -4.23966845     -3.71662909
  C      1.53989625     -5.16266118     -2.71844944
  C      2.35597674     -6.25294396     -2.46842202
  C      3.52343645     -6.42760332     -3.20065248
  C      3.86331126     -5.51387430     -4.18823061
  C      3.04140729     -4.42765227     -4.45011379
  H      3.31197892     -3.72467432     -5.22933357
  H      4.16732567     -7.27585904     -3.00057189
  H      4.77229685     -5.64796214     -4.76313326
  H      0.63266049     -5.02165922     -2.13815401
  H     -1.52662057     -6.01585303     -6.99698688
  C      1.60348943     -1.69124156     -5.07314247
  C      1.05253171     -1.25593828     -6.27960206
  C      1.70837130     -0.30794513     -7.05138390
  C      2.92594684      0.21261794     -6.63751288
  C      3.48218221     -0.20934395     -5.43581494
  C      2.81763652     -1.13897863     -4.65242748
  H      3.43987973      0.94742436     -7.24591104
  H      4.43848281      0.18344944     -5.10873864
  H      3.24301336     -1.44558828     -3.70285383
  H      2.08331091     -6.96580884     -1.69846256
  H      1.26432496      0.02282656     -7.98337408
  H      0.10595853     -1.65866827     -6.62057016
  P     -1.44052028     -4.90055046      0.58688883
  C     -0.59560647     -6.42368047      1.10862679
  C     -1.24888996     -7.50594625      1.70250440
  C     -0.53475163     -8.63010236      2.08766715
  C      0.83762028     -8.69115552      1.88722992
  C      1.49988639     -7.61916401      1.30393460
  C      0.78812946     -6.49267655      0.92271327
  H      1.39202365     -9.57131579      2.19076788
  H     -2.31947702     -7.46761379      1.86809092
  H      1.30576019     -5.64959150      0.47683029
  H      2.57227846     -7.65695579      1.15089718
  C     -2.18932133     -5.32007899     -1.01721276
  C     -3.06707108     -4.39193382     -1.58642641
  C     -3.63505491     -4.62913918     -2.82609731
  C     -3.32427822     -5.79038914     -3.52219659
  C     -2.43200320     -6.70365082     -2.98027403
  C     -1.86512528     -6.47142989     -1.73552811
  H     -1.17506864     -7.19391571     -1.31521369
  H     -3.77255214     -5.97726988     -4.49078536
  H     -2.17756569     -7.60464183     -3.52624407
  H     -3.31064771     -3.48299722     -1.04427395
  H     -1.05343127     -9.46287765      2.54822839
  C     -2.87756481     -4.78604698      1.69822968
  C     -2.77255642     -3.96041407      2.81828592
  C     -3.81944035     -3.85253137      3.71986361
  C     -4.98499424     -4.57871204      3.51767367
  C     -5.09944964     -5.40723558      2.40885898
  C     -4.05859170     -5.50535186      1.49784180
  H     -5.80321572     -4.50071023      4.22377634
  H     -6.00350651     -5.98473390      2.25418806
  H     -4.16465346     -6.14027296      0.62570720
  H     -4.32192930     -3.90600506     -3.25101915
  H     -3.72381788     -3.20077840      4.58094038
  H     -1.85770356     -3.40129569      2.97974756
  P     -0.07325016      4.83629044      2.36302726
  C     -0.14382046      6.42322454      1.47418834
  C     -0.61459183      7.59745465      2.06819021
  C     -0.65347693      8.77935971      1.34571202
  C     -0.22669041      8.80670007      0.02413702
  C      0.23910729      7.64567004     -0.57654729
  C      0.27811995      6.46171362      0.14359521
  H     -0.26020177      9.73277668     -0.53757574
  H     -0.95452562      7.58350273      3.09764046
  H      0.63142824      5.55292481     -0.33143584
  H      0.56823822      7.65839979     -1.60959138
  C      1.20698836      5.05196294      3.63413282
  C      1.34505486      4.03866522      4.58895321
  C      2.37187352      4.07538157      5.51702551
  C      3.29041335      5.11791032      5.49410894
  C      3.16791455      6.12507995      4.54714057
  C      2.13426434      6.09488406      3.62145312
  H      2.04616623      6.88859249      2.88834404
  H      4.09968684      5.14413434      6.21426900
  H      3.88068259      6.94133282      4.52713972
  H      0.63555026      3.21801588      4.60259681
  H     -1.02013684      9.68411359      1.81633702
  C     -1.62868828      4.75734520      3.30189623
  C     -2.68268502      4.03290240      2.73843777
  C     -3.89059848      3.90451164      3.40366139
  C     -4.06196905      4.49884608      4.64738050
  C     -3.02127255      5.21976893      5.21907112
  C     -1.81065017      5.34831086      4.55383459
  H     -5.00476755      4.39786760      5.17198837
  H     -3.15191653      5.68366294      6.18979971
  H     -0.99915173      5.90000416      5.01445996
  H      2.45863029      3.28668144      6.25606577
  H     -4.69596996      3.33407687      2.95437978
  H     -2.54682579      3.56160208      1.77007798
  P     -4.40459226     -0.38542768     -0.47080968
  C     -5.56598077     -1.75606581     -0.73721635
  C     -5.98546644     -2.61540108      0.27947697
  C     -6.83966613     -3.66975271     -0.00785665
  C     -7.27484210     -3.88673022     -1.30709589
  C     -6.85449845     -3.04313039     -2.32791747
  C     -6.00183757     -1.98804798     -2.04712228
  H     -7.94119435     -4.71269573     -1.52570605
  H     -5.64908807     -2.45655486      1.29791758
  H     -5.67184762     -1.33079957     -2.84514866
  H     -7.19234611     -3.20729872     -3.34450690
  C     -5.36832257      1.11667515     -0.81195247
  C     -4.66194121      2.30052711     -1.04361808
  C     -5.33417357      3.48469764     -1.29521559
  C     -6.72256416      3.50296520     -1.32314223
  C     -7.43415932      2.33271163     -1.09901160
  C     -6.76442198      1.14524949     -0.84461157
  H     -7.32782868      0.23453223     -0.67711062
  H     -7.24860678      4.42860210     -1.52485995
  H     -8.51759921      2.34213802     -1.12366140
  H     -3.57621095      2.28745547     -1.02886000
  H     -7.16826966     -4.32418167      0.79101526
  C     -4.15082216     -0.30275821      1.33150213
  C     -2.94801389     -0.76810182      1.86358130
  C     -2.69394999     -0.68032670      3.22276690
  C     -3.64207958     -0.12981676      4.07396782
  C     -4.84440586      0.33439610      3.55743264
  C     -5.09754768      0.25237680      2.19680354
  H     -3.44154606     -0.05979231      5.13668566
  H     -5.58869473      0.76438687      4.21753212
  H     -6.03554144      0.62550540      1.80137356
  H     -4.77267559      4.39403786     -1.47741400
  H     -1.75307044     -1.04622055      3.61760754
  H     -2.20514279     -1.20543169      1.20546330
  P      0.05481615      3.01411852     -4.10829274
  C     -1.05587982      4.31753629     -3.49235010
  C     -1.64049852      5.29282457     -4.30149017
  C     -2.48197938      6.24819670     -3.75001809
  C     -2.75261330      6.24277583     -2.38873707
  C     -2.18373901      5.27081864     -1.57463256
  C     -1.34617411      4.31469015     -2.12467980
  H     -3.40674509      6.99311621     -1.96056191
  H     -1.43661528      5.30446026     -5.36609847
  H     -0.90577473      3.55477298     -1.48644363
  H     -2.38887310      5.25969320     -0.50999571
  C     -0.10500673      3.01253250     -5.91615784
  C     -0.89730863      2.02210984     -6.50231009
  C     -1.03462480      1.95279025     -7.87948258
  C     -0.37491869      2.86858523     -8.68858210
  C      0.41994632      3.85320948     -8.11683757
  C      0.55761875      3.92724210     -6.73965018
  H      1.18714127      4.69246741     -6.29965077
  H     -0.47687499      2.81190801     -9.76585322
  H      0.93840736      4.56641527     -8.74698644
  H     -1.40244483      1.29938194     -5.86913039
  H     -2.92790821      7.00186705     -4.38853467
  C      1.71584135      3.69813776     -3.81581284
  C      1.95593778      5.03983273     -3.51141176
  C      3.25277046      5.49016379     -3.30871964
  C      4.32255649      4.61136663     -3.41050841
  C      4.09283053      3.27485724     -3.70932852
  C      2.79874489      2.81928202     -3.90097586
  H      5.33432467      4.96670886     -3.25497953
  H      4.92296231      2.58272513     -3.78984865
  H      2.61964642      1.77309126     -4.12626178
  H     -1.65365134      1.18074967     -8.32163612
  H      3.42645235      6.53377069     -3.07340116
  H      1.12727863      5.73455821     -3.43534686
  P      1.12178260     -0.49763122      4.39296682
  C      0.17956334      0.39344579      5.66916171
  C      0.46192234      0.24743235      7.03076353
  C     -0.25823218      0.95903649      7.97704318
  C     -1.26823115      1.82584587      7.58054018
  C     -1.55571074      1.98131266      6.23195138
  C     -0.83228602      1.27476949      5.28252373
  H     -1.82877846      2.38239089      8.32234244
  H      1.25348001     -0.42245933      7.34803754
  H     -1.05666767      1.40324431      4.22922208
  H     -2.33989573      2.65958647      5.91597532
  C      2.83020284     -0.35026986      4.99416400
  C      3.52135278      0.81962608      4.66684972
  C      4.80854988      1.03167370      5.13315666
  C      5.42508926      0.07268805      5.92650355
  C      4.75017665     -1.09641292      6.25019103
  C      3.45940442     -1.31014540      5.78856930
  H      2.93996097     -2.22626238      6.04500258
  H      6.43252829      0.23607518      6.29049523
  H      5.22845338     -1.84598410      6.86982639
  H      3.03887588      1.56728771      4.04525332
  H     -0.02826138      0.83791911      9.02914414
  C      0.68894652     -2.25116809      4.60862766
  C     -0.32734918     -2.69207663      5.45790889
  C     -0.66840229     -4.03689038      5.50621626
  C     -0.00751904     -4.95697892      4.70459512
  C      1.00377010     -4.52925613      3.85312509
  C      1.34378673     -3.18780203      3.80185831
  H     -0.28034589     -6.00517878      4.73957597
  H      1.52649545     -5.24201899      3.22568700
  H      2.13162236     -2.85815891      3.13277820
  H      5.33076893      1.94723413      4.87977745
  H     -1.45744420     -4.36489880      6.17296823
  H     -0.85156648     -1.98364636      6.08899439
