246
Energy =   -372.44668695 au
 Au     -1.74340869     -2.13698010     -0.26784210
 Au      1.07785755      2.93647522      1.14734987
 Au     -1.45125171      2.21526773      1.30906139
 Au     -0.36491428      2.87302358     -1.34043450
 Au     -0.76252226      0.21039850     -0.92466390
 Au      0.57196926      0.79479031      2.61662415
 Au      0.74450942     -1.47872072      0.50959006
 Au     -0.67897980      1.40123697     -3.42604809
  P      0.31946497     -0.54205655      4.58764722
  C      0.86237003      0.42321444      6.03162558
  C      0.67091481     -0.04329389      7.33728538
  C      1.04632703      0.73328429      8.42103246
  C      1.60488257      1.98959663      8.22133771
  C      1.78625452      2.46789512      6.93175739
  C      1.41797760      1.68888814      5.84550914
  H      1.89312517      2.59660556      9.07141901
  H      0.22017460     -1.01601591      7.50152318
  H      1.56406672      2.06445363      4.83871488
  H      2.21472982      3.45008250      6.76801822
  C      1.04944196     -2.19254033      4.82055927
  C      0.55377000     -3.25882782      4.06365432
  C      1.07045070     -4.53495370      4.21988859
  C      2.11790696     -4.75989760      5.10435391
  C      2.64704979     -3.70045892      5.82885708
  C      2.11661307     -2.42647628      5.69074502
  H      2.52731623     -1.61121369      6.27486421
  H      2.51924845     -5.75881496      5.22710619
  H      3.47118158     -3.86659442      6.51282909
  H     -0.25032261     -3.08404365      3.35567965
  H      0.89707844      0.35908717      9.42714806
  C     -1.44428948     -0.74917037      5.00905233
  C     -2.25331789      0.38282704      4.86260541
  C     -3.59242274      0.34931065      5.21367026
  C     -4.14938803     -0.82194169      5.71094963
  C     -3.35910248     -1.95353384      5.85457085
  C     -2.01440533     -1.91941232      5.51080016
  H     -5.19746886     -0.85207727      5.98417332
  H     -3.78754976     -2.87043585      6.24276194
  H     -1.40949262     -2.80900573      5.64170030
  H      0.65512088     -5.35746718      3.64970284
  H     -4.20296631      1.23727125      5.09553314
  H     -1.82090424      1.29973007      4.47499323
  P      3.56187081      2.84227315      1.05634842
  C      4.81720708      4.15657680      0.85186995
  C      6.07762731      4.11679096      1.45622180
  C      6.99399350      5.13357725      1.23450132
  C      6.67351597      6.19966970      0.40536033
  C      5.43150952      6.24192087     -0.21268464
  C      4.51398725      5.22776413      0.00871356
  H      7.39155975      6.99384429      0.23876988
  H      6.34723953      3.29016568      2.10327481
  H      3.54688432      5.26618509     -0.47880036
  H      5.17320961      7.06676393     -0.86684342
  C      4.05101268      1.67063710     -0.26125516
  C      3.05574820      1.08834389     -1.04631428
  C      3.37229025      0.25316925     -2.10515322
  C      4.70129512     -0.01869575     -2.39641562
  C      5.70558568      0.55089985     -1.62292780
  C      5.38574919      1.39175817     -0.56721628
  H      6.18004251      1.83821654      0.02012389
  H      4.95401355     -0.67132334     -3.22414167
  H      6.74551967      0.34549472     -1.84870847
  H      2.01653815      1.30069068     -0.82770078
  H      7.96552146      5.08999134      1.71302965
  C      4.03573139      2.00696096      2.60290378
  C      4.37921196      2.74936186      3.73601099
  C      4.59823920      2.11938347      4.95238738
  C      4.44048537      0.74507164      5.06555248
  C      4.05877424      0.00306085      3.95593977
  C      3.86207069      0.62743933      2.73444252
  H      4.60118915      0.25462698      6.01838764
  H      3.91490360     -1.06770515      4.04112553
  H      3.57741919      0.03935023      1.86906622
  H      2.57979716     -0.17975990     -2.70527705
  H      4.88097874      2.70726780      5.81787182
  H      4.47310647      3.82751377      3.66762425
  P     -2.98964128     -4.15251389     -0.43126927
  C     -1.93699965     -5.42353240     -1.19652853
  C     -2.19758931     -6.79271408     -1.08618002
  C     -1.34876734     -7.71676285     -1.67674316
  C     -0.22934397     -7.29145365     -2.38033967
  C      0.04219758     -5.93499790     -2.49320636
  C     -0.80599451     -5.01089431     -1.90430891
  H      0.43354798     -8.01764239     -2.83576381
  H     -3.06334499     -7.13430250     -0.52993238
  H     -0.58511666     -3.95173901     -1.97935271
  H      0.91817294     -5.59306736     -3.03302065
  C     -4.49370044     -4.10845048     -1.45466451
  C     -5.42416191     -3.09898105     -1.18758642
  C     -6.56742312     -2.96894459     -1.95850480
  C     -6.79963548     -3.84750797     -3.00892692
  C     -5.88741765     -4.85819137     -3.27826967
  C     -4.73849426     -4.98746653     -2.51102534
  H     -4.03277641     -5.77949808     -2.73319454
  H     -7.69210258     -3.74564827     -3.61492702
  H     -6.07067121     -5.55401458     -4.08884030
  H     -5.25073559     -2.41756158     -0.36138280
  H     -1.56104772     -8.77548025     -1.58376761
  C     -3.52742796     -4.93913195      1.12089923
  C     -2.66862512     -4.86335571      2.22143041
  C     -3.01323150     -5.44337327      3.43170109
  C     -4.23031147     -6.09966939      3.56286916
  C     -5.09525692     -6.17377495      2.47986284
  C     -4.74896498     -5.59922240      1.26524500
  H     -4.50497256     -6.54962876      4.50954890
  H     -6.04656457     -6.68348972      2.57875310
  H     -5.43273956     -5.66121880      0.42662225
  H     -7.27769603     -2.17995788     -1.73925989
  H     -2.33347489     -5.37660689      4.27370479
  H     -1.72574846     -4.33664325      2.12472157
  P      0.57420507      5.16085986     -0.19083767
  C     -1.12545134      5.81646224     -0.12563669
  C     -1.65858423      6.25197219      1.09022853
  C     -2.99085059      6.62235475      1.18419389
  C     -3.81234470      6.56632727      0.06643096
  C     -3.29559321      6.13123360     -1.14651300
  C     -1.96603338      5.74685233     -1.23976120
  H     -4.85345845      6.85771285      0.14107678
  H     -1.02509765      6.30217310      1.96906633
  H     -1.57541479      5.39875846     -2.18896117
  H     -3.92732839      6.09801037     -2.02686123
  C      1.14862527      5.52990963     -1.88325361
  C      2.00623466      4.60865588     -2.49332235
  C      2.46157658      4.80958306     -3.78702700
  C      2.06396886      5.93651763     -4.49286597
  C      1.21378719      6.85968811     -3.89855128
  C      0.75695330      6.66126495     -2.60427320
  H      0.08374397      7.38365249     -2.15752164
  H      2.41395344      6.09471147     -5.50615430
  H      0.90081634      7.74064300     -4.44683668
  H      2.32057528      3.72690155     -1.94570415
  H     -3.38945641      6.95719326      2.13489417
  C      1.49537320      6.34341895      0.86980419
  C      1.68604637      6.02024899      2.21524664
  C      2.39668796      6.86192892      3.05548962
  C      2.93110527      8.04386309      2.56149704
  C      2.74662783      8.37844946      1.22705699
  C      2.03524288      7.53689803      0.38553652
  H      3.49333460      8.70096409      3.21428283
  H      3.16204105      9.29945779      0.83486103
  H      1.90961678      7.80910277     -0.65569961
  H      3.12303385      4.08208698     -4.24364850
  H      2.53727269      6.59065202      4.09545866
  H      1.27764899      5.09366138      2.60468315
  P     -3.74575759      1.80200478      0.82305668
  C     -4.43212098      0.25836886      1.50352760
  C     -5.79368491     -0.04760567      1.44003823
  C     -6.26533238     -1.25410135      1.93480314
  C     -5.38685559     -2.16902201      2.50162958
  C     -4.03412566     -1.86957374      2.57762059
  C     -3.56025340     -0.66465601      2.08261042
  H     -5.75678520     -3.11140490      2.88855251
  H     -6.48683114      0.66218709      1.00281487
  H     -2.50698131     -0.42415270      2.16676691
  H     -3.34490427     -2.56879080      3.03508877
  C     -3.94731965      1.56255183     -0.97009225
  C     -3.89123456      2.66847342     -1.82168630
  C     -3.89035580      2.50263039     -3.19829795
  C     -3.93509162      1.22615864     -3.74845814
  C     -3.99035520      0.11827630     -2.91272354
  C     -3.99315497      0.28685309     -1.53643948
  H     -4.04439207     -0.58418598     -0.89470056
  H     -3.93686552      1.09635308     -4.82423173
  H     -4.03011067     -0.88135051     -3.33026236
  H     -3.84414653      3.66561680     -1.39911280
  H     -7.32393830     -1.47976554      1.88070340
  C     -4.94265714      3.09318980      1.26371132
  C     -4.68775614      3.83490522      2.42081035
  C     -5.55819862      4.83493941      2.82302685
  C     -6.68982640      5.11421314      2.06779488
  C     -6.94973634      4.38690546      0.91400679
  C     -6.08535660      3.37990050      0.51226259
  H     -7.36816904      5.90022811      2.37782440
  H     -7.83140648      4.60359617      0.32213623
  H     -6.29496984      2.82041108     -0.39225891
  H     -3.85309172      3.37170147     -3.84460230
  H     -5.35074549      5.40048268      3.72398398
  H     -3.79648595      3.62490297      3.00330486
  P     -0.66016566      0.28237769     -5.49949029
  C     -1.77176002     -1.15270295     -5.57781298
  C     -2.86901837     -1.21791136     -6.43790185
  C     -3.74240574     -2.29423993     -6.38214662
  C     -3.53389092     -3.31465655     -5.46613571
  C     -2.45071853     -3.25544498     -4.59832921
  C     -1.58084395     -2.17928637     -4.64646477
  H     -4.21661924     -4.15501463     -5.42283340
  H     -3.03904307     -0.42598632     -7.15809334
  H     -0.74262900     -2.12948660     -3.95806233
  H     -2.28675877     -4.05008350     -3.87927039
  C      0.98356745     -0.37635746     -5.91370798
  C      2.09366520      0.37409540     -5.51648170
  C      3.37666292     -0.03501837     -5.84204600
  C      3.56848824     -1.20492651     -6.56572429
  C      2.47372017     -1.96557802     -6.95444329
  C      1.18747117     -1.55755606     -6.63032160
  H      0.33865741     -2.15817485     -6.93656539
  H      4.57099641     -1.52263526     -6.82713787
  H      2.62009438     -2.87946340     -7.51843828
  H      1.94366309      1.28980412     -4.95331003
  H     -4.58866512     -2.33439355     -7.05803961
  C     -1.08347997      1.30179953     -6.94120630
  C     -1.63852725      2.56482854     -6.72557457
  C     -1.97408217      3.37967540     -7.79547445
  C     -1.75420898      2.94317799     -9.09451965
  C     -1.19481855      1.69203493     -9.32094628
  C     -0.85883564      0.87486802     -8.25377854
  H     -2.01493424      3.57967906     -9.93184423
  H     -1.01736196      1.35160488    -10.33445499
  H     -0.41545339     -0.09773227     -8.43664898
  H      4.22758826      0.56209259     -5.53459143
  H     -2.40499193      4.35753218     -7.61390104
  H     -1.80375078      2.90751753     -5.70908125
  P      2.65936702     -2.94855030      0.53922831
  C      2.21277521     -4.68440430      0.88122290
  C      3.17716670     -5.69092352      0.99402653
  C      2.79807808     -7.00839903      1.19391790
  C      1.45347758     -7.34549304      1.27844344
  C      0.48707359     -6.35730502      1.15772880
  C      0.86671100     -5.03853564      0.95605825
  H      1.15948103     -8.37649492      1.43540748
  H      4.23006141     -5.44264131      0.92394027
  H      0.11029944     -4.26802109      0.85585648
  H     -0.56500527     -6.61216171      1.21641294
  C      4.21500908     -2.70883985      1.45292156
  C      5.19742960     -1.84639024      0.95658686
  C      6.36224477     -1.61650135      1.67183985
  C      6.56179903     -2.23632127      2.89789885
  C      5.58526898     -3.08015209      3.41040425
  C      4.41645858     -3.30862617      2.69928931
  H      3.65950093     -3.96662806      3.11068783
  H      7.47463651     -2.06014755      3.45432710
  H      5.73153220     -3.56419091      4.36916282
  H      5.05200241     -1.36137693     -0.00152916
  H      3.55742797     -7.77661772      1.28197253
  C      3.17884239     -3.12815248     -1.20175092
  C      2.24208011     -2.85466557     -2.20063234
  C      2.54454733     -3.05626664     -3.53762604
  C      3.79940930     -3.52569021     -3.90042226
  C      4.74190405     -3.80002578     -2.91880695
  C      4.43360928     -3.61238198     -1.57991874
  H      4.04039930     -3.67829130     -4.94579517
  H      5.72220996     -4.17031328     -3.19531112
  H      5.17669333     -3.84439692     -0.82583719
  H      7.11618086     -0.95051120      1.26790620
  H      1.80007520     -2.84198719     -4.29607654
  H      1.26373662     -2.47856669     -1.92525504
