246
Energy =   -372.45152879 au
 Au     -1.87544006     -0.63645597     -0.95569804
 Au     -0.30238643      2.97223650      1.67940812
 Au     -0.53563407     -1.94258764     -2.82254591
 Au      0.19381784      0.33350202      1.98042221
 Au      1.47192723     -3.71664072      0.94784502
 Au      0.55898232     -1.57514251     -0.42984598
 Au      2.61015626     -1.42679168      1.37178818
 Au      0.24473344      1.39906615     -0.40234935
  P      0.08156933     -0.70707427      4.13961669
  C      0.63527976     -2.43589949      4.26466511
  C      1.90731400     -2.76115585      4.74111914
  C      2.34668931     -4.07651459      4.73973167
  C      1.52301550     -5.08666901      4.26404626
  C      0.26317268     -4.77353047      3.76807763
  C     -0.17234353     -3.45661784      3.75332042
  H      1.85872079     -6.11670014      4.27690328
  H      2.55582469     -1.98104874      5.12311006
  H     -1.15248485     -3.21866510      3.35594566
  H     -0.38482925     -5.55852870      3.39620394
  C     -1.58790231     -0.68629194      4.86057252
  C     -2.43261462      0.36531148      4.49629960
  C     -3.69418022      0.48879682      5.05431854
  C     -4.13233088     -0.44297836      5.98620547
  C     -3.30773608     -1.50004406      6.34754279
  C     -2.04388600     -1.62488011      5.78989048
  H     -1.41043550     -2.45666652      6.07582856
  H     -5.11751964     -0.34744029      6.42709991
  H     -3.64817127     -2.23180416      7.07088937
  H     -2.09181184      1.09286054      3.76683084
  H      3.33435896     -4.31260659      5.11846997
  C      1.09050128      0.12723236      5.40610762
  C      2.16343326      0.91536068      4.98815442
  C      2.98752945      1.53939543      5.91147600
  C      2.74417371      1.38883362      7.26932911
  C      1.67212375      0.61651111      7.69829753
  C      0.84985579     -0.01145262      6.77588823
  H      3.38673080      1.87577583      7.99335997
  H      1.47614119      0.49983772      8.75777488
  H      0.01696503     -0.61293574      7.12185614
  H     -4.33611877      1.31103709      4.75933102
  H      3.81815675      2.14628570      5.57032994
  H      2.34780458      1.03755392      3.92699475
  P     -0.42189379      5.10000964      2.70174012
  C     -1.99441736      6.00140521      2.88322628
  C     -2.72619359      6.01706113      4.07248697
  C     -3.93441805      6.69486429      4.14227772
  C     -4.42920987      7.36077699      3.02967795
  C     -3.71519611      7.34025751      1.83762425
  C     -2.51111629      6.65941590      1.76158420
  H     -5.36919478      7.89633231      3.09016103
  H     -2.34525159      5.50812995      4.95053554
  H     -1.95936612      6.64160486      0.82743854
  H     -4.09510416      7.85936973      0.96515880
  C      0.64083039      6.33252300      1.89475310
  C      1.50120973      5.92437998      0.87365393
  C      2.32494107      6.83808623      0.23477276
  C      2.29650558      8.17527255      0.60486092
  C      1.43832397      8.59617394      1.61226419
  C      0.61383546      7.68477863      2.25266354
  H     -0.06356909      8.02362991      3.02830932
  H      2.93888590      8.89040049      0.10470524
  H      1.40895999      9.64067746      1.89969123
  H      1.51684603      4.88155763      0.57422922
  H     -4.48839253      6.70639626      5.07375601
  C      0.20337474      4.91875754      4.39995248
  C     -0.28216518      3.83455901      5.13875322
  C      0.15471252      3.60757243      6.43295115
  C      1.10309482      4.44805134      7.00120437
  C      1.60587435      5.51594828      6.27140440
  C      1.15787112      5.75500849      4.98034311
  H      1.45345520      4.26596417      8.01036513
  H      2.35052164      6.17040171      6.70955062
  H      1.55553692      6.59542291      4.42318778
  H      2.98971692      6.50432556     -0.55372704
  H     -0.23674959      2.76706329      6.99470598
  H     -1.00518438      3.16249382      4.68740390
  P      0.39993117     -5.69207407      0.11558074
  C     -1.29449568     -5.21237079     -0.35570059
  C     -1.61492948     -4.85806507     -1.66774824
  C     -2.87340694     -4.36601053     -1.98251098
  C     -3.83860787     -4.23359030     -0.99444226
  C     -3.53712917     -4.59425097      0.31179028
  C     -2.27144605     -5.06071442      0.63270968
  H     -4.82292743     -3.85351323     -1.24250193
  H     -0.87873436     -4.98152358     -2.45344019
  H     -2.04130163     -5.31795550      1.66078127
  H     -4.29002148     -4.50650561      1.08623925
  C      0.20882039     -7.22748298      1.07381211
  C      1.30425245     -7.64272902      1.83792640
  C      1.24257765     -8.80964130      2.58235043
  C      0.08393820     -9.57532547      2.57768195
  C     -1.00796074     -9.17366255      1.82092942
  C     -0.94912450     -8.00895443      1.07033490
  H     -1.80691085     -7.70733961      0.48025431
  H      0.03288841    -10.48568640      3.16314920
  H     -1.91242651     -9.77085098      1.81130959
  H      2.21013717     -7.04505614      1.84102040
  H     -3.10494353     -4.09877371     -3.00711052
  C      1.12566891     -6.25678790     -1.45686002
  C      2.02443024     -5.42103653     -2.12296304
  C      2.61171433     -5.81968098     -3.31354460
  C      2.30931637     -7.06189951     -3.85525968
  C      1.41793035     -7.90317228     -3.20064452
  C      0.82953794     -7.50561263     -2.01047332
  H      2.77430968     -7.37734004     -4.78189041
  H      1.18544238     -8.87687799     -3.61597899
  H      0.13947305     -8.17052001     -1.50318340
  H      2.09956327     -9.12105664      3.16822442
  H      3.31224569     -5.16201977     -3.81521203
  H      2.26776259     -4.45271643     -1.69847169
  P     -0.50891665     -2.84964744     -5.01014990
  C     -1.26784026     -1.70737286     -6.20775962
  C     -1.03134729     -1.75780374     -7.58323850
  C     -1.67455254     -0.87590200     -8.43810145
  C     -2.56156734      0.06685122     -7.93456324
  C     -2.79873412      0.13126457     -6.56826141
  C     -2.15553912     -0.74891776     -5.71256836
  H     -3.06335654      0.75370614     -8.60581596
  H     -0.33913262     -2.48626046     -7.98883246
  H     -2.33718732     -0.69366466     -4.64390497
  H     -3.48149423      0.87171229     -6.16706154
  C     -1.43951581     -4.39176300     -5.25730710
  C     -0.83466856     -5.62382264     -4.99068539
  C     -1.56776803     -6.79788510     -5.06238470
  C     -2.91572115     -6.75971923     -5.39166369
  C     -3.52855002     -5.54106346     -5.65088313
  C     -2.79989505     -4.36344954     -5.57820753
  H     -3.28696709     -3.41610122     -5.78165336
  H     -3.48810248     -7.67806906     -5.44668031
  H     -4.58046590     -5.50506829     -5.90956310
  H      0.21882620     -5.66312233     -4.73708808
  H     -1.48301572     -0.92666084     -9.50363374
  C      1.15634026     -3.23001026     -5.62893275
  C      2.24663562     -2.68964558     -4.94185610
  C      3.54459508     -2.93324702     -5.36418444
  C      3.77106389     -3.72998239     -6.47896367
  C      2.69718333     -4.28804245     -7.15958220
  C      1.39866405     -4.04402832     -6.73951557
  H      4.78419792     -3.92272913     -6.81140075
  H      2.87114377     -4.92020096     -8.02251890
  H      0.56973875     -4.49959031     -7.26885972
  H     -1.08188187     -7.74502539     -4.85696704
  H      4.37791042     -2.50267239     -4.82076003
  H      2.07050645     -2.08395428     -4.05885917
  P      4.42300321      0.16358549      1.54224281
  C      4.51572908      1.76167294      2.43417810
  C      5.60993991      2.13267401      3.21819650
  C      5.63358678      3.36358745      3.85846989
  C      4.56669140      4.24165598      3.72711169
  C      3.47353002      3.88277508      2.95044862
  C      3.44827098      2.65452078      2.31120300
  H      4.58342649      5.20154908      4.22976658
  H      6.44827045      1.45583147      3.33290411
  H      2.58691727      2.37994036      1.71159921
  H      2.63445645      4.56029523      2.84710145
  C      4.97385909      0.64969852     -0.12579574
  C      4.26858712      0.18738416     -1.23778268
  C      4.65452126      0.54128140     -2.52132024
  C      5.75182142      1.36848143     -2.71257366
  C      6.46078190      1.83975546     -1.61490377
  C      6.07495596      1.48768399     -0.33093538
  H      6.62955945      1.86616469      0.52059179
  H      6.05344512      1.64827123     -3.71508930
  H      7.31776158      2.48722013     -1.75978095
  H      3.40832791     -0.45715895     -1.09320715
  H      6.49132103      3.63630707      4.46214778
  C      5.81156129     -0.77658958      2.24307009
  C      5.68392422     -1.19108914      3.57461459
  C      6.66196578     -1.97202768      4.16666806
  C      7.77509437     -2.36417631      3.43335245
  C      7.90265819     -1.97346734      2.10829090
  C      6.92667996     -1.18739688      1.51263818
  H      8.53942974     -2.97827646      3.89470079
  H      8.76653217     -2.28236462      1.53114640
  H      7.03507279     -0.89222400      0.47535168
  H      4.09748309      0.16893913     -3.37383971
  H      6.55388726     -2.27932640      5.20052761
  H      4.80938998     -0.89287927      4.14536291
  P     -4.06014536     -0.03654143     -0.28281968
  C     -4.52665087      1.68282928      0.09442668
  C     -5.49062349      2.40329956     -0.60993765
  C     -5.80516968      3.70232055     -0.23363298
  C     -5.16518970      4.29186452      0.84690567
  C     -4.20038595      3.58267199      1.55145121
  C     -3.87765481      2.29162480      1.17306108
  H     -5.41705281      5.30316416      1.14380659
  H     -6.00486197      1.94596895     -1.44723575
  H     -3.12765117      1.73725919      1.72842246
  H     -3.70305553      4.03238179      2.40236943
  C     -4.57943943     -0.88791506      1.23686033
  C     -3.71608083     -1.80625983      1.83457107
  C     -4.09147636     -2.48189730      2.98601399
  C     -5.33221547     -2.24234583      3.55916053
  C     -6.19186933     -1.31421234      2.98574907
  C     -5.81910480     -0.63778576      1.83554000
  H     -6.49038801      0.09282142      1.39809394
  H     -5.62593356     -2.77347687      4.45678188
  H     -7.15716513     -1.11671317      3.43707720
  H     -2.74546441     -1.99509277      1.38797038
  H     -6.56217868      4.25060362     -0.78223149
  C     -5.20637328     -0.58329572     -1.58042399
  C     -4.94229571     -0.14046446     -2.88162230
  C     -5.70834284     -0.58262041     -3.94726653
  C     -6.74021248     -1.48726579     -3.73204508
  C     -7.00473488     -1.94072897     -2.44761030
  C     -6.24361119     -1.49435231     -1.37654490
  H     -7.33423758     -1.84088001     -4.56644909
  H     -7.80720644     -2.64865062     -2.27548777
  H     -6.45970592     -1.85680651     -0.37825066
  H     -3.41271044     -3.19511290      3.43954175
  H     -5.49531127     -0.22720895     -4.94902148
  H     -4.12429715      0.55264736     -3.05315515
  P      0.52950602      2.64501423     -2.43349191
  C     -0.74220438      3.94198801     -2.34061279
  C     -0.45661171      5.27370517     -2.03757683
  C     -1.48221512      6.19143318     -1.86160556
  C     -2.80569154      5.79227656     -1.98497453
  C     -3.10214721      4.46800253     -2.28184503
  C     -2.08077008      3.54776137     -2.44615623
  H     -3.60614600      6.51014100     -1.84937425
  H      0.57269490      5.59850132     -1.93887466
  H     -2.31826345      2.50953508     -2.65896036
  H     -4.13373898      4.14968996     -2.37751599
  C      0.45166853      2.05033685     -4.15712631
  C      1.21525956      0.92728249     -4.48740373
  C      1.29877656      0.49445829     -5.80090779
  C      0.60308513      1.16356463     -6.79884274
  C     -0.18695768      2.25739424     -6.47573874
  C     -0.26015017      2.70382035     -5.16452193
  H     -0.86746843      3.56904880     -4.92560412
  H      0.67139871      0.82630663     -7.82634066
  H     -0.74182899      2.77469309     -7.24978267
  H      1.76080941      0.40442135     -3.70828817
  H     -1.24299971      7.22407534     -1.63459707
  C      2.10324071      3.55977445     -2.42403660
  C      2.93762055      3.44695176     -1.31163974
  C      4.13128422      4.14839176     -1.24406960
  C      4.51653848      4.96093731     -2.30205908
  C      3.70371995      5.06752258     -3.42374360
  C      2.50482891      4.37532435     -3.48647577
  H      5.45224286      5.50541124     -2.25532609
  H      4.00537454      5.69592026     -4.25363216
  H      1.87568557      4.46498754     -4.36511433
  H      1.91200144     -0.36414505     -6.04856526
  H      4.76270166      4.05295996     -0.36817720
  H      2.64683135      2.79541129     -0.49551730
