246
Energy =   -372.45748741 au
 Au     -0.32287448     -0.02650243     -1.21388243
 Au      2.21038658      0.47704437     -0.37487324
 Au     -1.15656877     -0.14286036     -3.72456232
 Au     -2.30885730     -0.04934787      1.58293528
 Au     -0.63763256     -0.05598501      3.57481850
 Au      0.52401158     -1.18465119      1.23038167
 Au     -2.20062736     -1.77969099     -1.98183453
 Au      0.12336515      1.45211201      1.17907157
  P      1.39636359     -3.42041722      1.08610076
  C      1.87877785     -3.92223614     -0.60618748
  C      2.56140180     -5.12009757     -0.84268476
  C      2.96023630     -5.46206240     -2.12503040
  C      2.69100200     -4.61508981     -3.19415190
  C      2.01508314     -3.42348494     -2.97344088
  C      1.61351206     -3.08685571     -1.68986127
  H      3.01217763     -4.88239964     -4.19384885
  H      2.78578716     -5.78636363     -0.01741595
  H      1.08676582     -2.15545472     -1.52718040
  H      1.80332393     -2.74976231     -3.79631297
  C      0.38286100     -4.80670808      1.68080641
  C      0.17248882     -4.95262759      3.05620982
  C     -0.65999531     -5.94953665      3.53864930
  C     -1.31096821     -6.80216487      2.65567698
  C     -1.12427271     -6.65403137      1.28881143
  C     -0.28502990     -5.66288818      0.80318363
  H     -0.14432648     -5.55506399     -0.26602471
  H     -1.96613809     -7.57779634      3.03411253
  H     -1.63491844     -7.31064489      0.59335777
  H      0.66932673     -4.28172614      3.74922723
  H      3.48751632     -6.39416303     -2.29137299
  C      2.98825876     -3.60850813      1.95155865
  C      3.83430187     -2.49887770      2.01588827
  C      5.09945200     -2.60385466      2.57060447
  C      5.53569325     -3.81938555      3.08014109
  C      4.69599689     -4.92438717      3.04284396
  C      3.43177998     -4.82311629      2.48124597
  H      6.52617306     -3.90279377      3.51153065
  H      5.02745555     -5.87330625      3.44792720
  H      2.78545634     -5.69285117      2.45877416
  H     -0.80577981     -6.05822054      4.60711252
  H      5.74584343     -1.73520437      2.60977467
  H      3.49322750     -1.54389222      1.62896558
  P      4.56460043      0.76693545     -0.63413579
  C      4.91777593      2.37066193     -1.41579790
  C      6.09560085      3.09629063     -1.22223950
  C      6.27177748      4.32415224     -1.84264205
  C      5.27716105      4.84612311     -2.65900362
  C      4.09913238      4.13714303     -2.85308949
  C      3.92161683      2.91110799     -2.23387584
  H      5.41768221      5.80742391     -3.13895282
  H      6.87387391      2.70531946     -0.57703612
  H      2.99579102      2.36307432     -2.37780482
  H      3.31472755      4.54211143     -3.48266797
  C      5.45750883     -0.46794033     -1.63034941
  C      5.08393735     -1.80618383     -1.47199778
  C      5.70577728     -2.80293408     -2.20526316
  C      6.70325572     -2.47569444     -3.11479405
  C      7.07792507     -1.14987268     -3.28430018
  C      6.46106889     -0.14896155     -2.54797750
  H      6.75579775      0.88437880     -2.69078695
  H      7.18616542     -3.25418885     -3.69357042
  H      7.85524986     -0.89101891     -3.99382871
  H      4.29571550     -2.06191909     -0.77079739
  H      7.19049003      4.87713256     -1.68526110
  C      5.48609855      0.78394188      0.93573967
  C      4.76927823      0.98666894      2.11735624
  C      5.41525177      1.01972182      3.34264919
  C      6.79038705      0.83834298      3.40544428
  C      7.51203843      0.61572332      2.23980523
  C      6.86709880      0.58493362      1.01247983
  H      7.29758535      0.86152086      4.36276525
  H      8.58385716      0.46217630      2.28621333
  H      7.43690592      0.39300308      0.11034267
  H      5.40551610     -3.83618136     -2.07209553
  H      4.84210392      1.17812849      4.24905159
  H      3.69221959      1.10668467      2.07228085
  P     -4.26713397      0.65126456      0.36084886
  C     -4.71128753      2.34080828      0.88058399
  C     -5.52782412      3.18156557      0.11856968
  C     -5.86873334      4.44178980      0.58471437
  C     -5.40181023      4.88332839      1.81603190
  C     -4.58917547      4.05775363      2.58125947
  C     -4.24780410      2.79752550      2.11586571
  H     -5.67102281      5.86830153      2.17854696
  H     -5.89567862      2.85224901     -0.84639060
  H     -3.61109422      2.15667075      2.71631719
  H     -4.21958871      4.39431469      3.54316248
  C     -5.76498933     -0.29624655      0.76989644
  C     -5.66825162     -1.31281789      1.72155979
  C     -6.78564405     -2.04676662      2.08989113
  C     -8.01728536     -1.77022118      1.51256527
  C     -8.12732011     -0.75671597      0.56833372
  C     -7.01195449     -0.02244364      0.19884220
  H     -7.10936227      0.76934034     -0.53531607
  H     -8.89235176     -2.34097386      1.79994125
  H     -9.08871737     -0.53389264      0.12039363
  H     -4.70600192     -1.52822636      2.17354894
  H     -6.50642204      5.08045138     -0.01540539
  C     -4.28132494      0.77549382     -1.45764213
  C     -3.57800272      1.81541985     -2.07253771
  C     -3.51392678      1.90517422     -3.45476427
  C     -4.13846448      0.94765131     -4.24780216
  C     -4.81746436     -0.10435586     -3.64845941
  C     -4.88423530     -0.19291804     -2.26447211
  H     -4.09605210      1.02593794     -5.32749015
  H     -5.30260094     -0.85867392     -4.25704445
  H     -5.43091511     -1.00993390     -1.80927620
  H     -6.69196604     -2.83458375      2.82849790
  H     -2.98199260      2.72883095     -3.91630928
  H     -3.08590905      2.56402229     -1.46191695
  P      0.61271558      0.34875769      5.57851214
  C     -0.26754986     -0.03336848      7.12089147
  C      0.38994790     -0.19087359      8.34489850
  C     -0.33027727     -0.48513436      9.49148102
  C     -1.71067701     -0.62733649      9.43308642
  C     -2.37285125     -0.47576746      8.22254375
  C     -1.65540570     -0.18315488      7.07344573
  H     -2.27003894     -0.86012316     10.33152805
  H      1.46805172     -0.08590646      8.39591592
  H     -2.17087022     -0.07009442      6.12484864
  H     -3.44958669     -0.58939483      8.17162630
  C      1.10810877      2.09185300      5.74530397
  C      1.89633355      2.64457928      4.73038440
  C      2.25448995      3.98189588      4.76217627
  C      1.81448331      4.79410556      5.79954178
  C      1.02079915      4.26033143      6.80454391
  C      0.66790577      2.91862428      6.77977197
  H      0.04869403      2.51185664      7.57082370
  H      2.08832011      5.84231658      5.82067652
  H      0.67227248      4.89087635      7.61423359
  H      2.22886676      2.01262217      3.91250453
  H      0.18871259     -0.60578187     10.43527089
  C      2.17455519     -0.57267122      5.74260801
  C      2.16768893     -1.91730002      5.36265731
  C      3.30532201     -2.69505915      5.49842128
  C      4.47399639     -2.13448325      5.99702968
  C      4.49654735     -0.79673952      6.36568103
  C      3.35384117     -0.01882029      6.24482174
  H      5.36620014     -2.74135010      6.09752042
  H      5.40573628     -0.35634127      6.75852376
  H      3.37763118      1.02201262      6.54622519
  H      2.87327407      4.39415930      3.97327864
  H      3.28181999     -3.73999121      5.21096200
  H      1.25764842     -2.35391107      4.96287692
  P     -0.35219052      0.69427889     -5.79087828
  C     -0.36830030      2.50163909     -6.00555690
  C      0.72748507      3.29725522     -5.66530039
  C      0.64841339      4.67906573     -5.75901135
  C     -0.52658612      5.28536114     -6.18397107
  C     -1.62712241      4.50370165     -6.51141476
  C     -1.55185309      3.12324773     -6.41752668
  H     -0.58451420      6.36465680     -6.26007194
  H      1.65082137      2.83509942     -5.33418075
  H     -2.41314687      2.51814328     -6.67997149
  H     -2.54733096      4.97075904     -6.84270963
  C     -1.09753555      0.04749982     -7.31291326
  C     -1.84574762     -1.12921672     -7.22647002
  C     -2.42699948     -1.68049344     -8.35710856
  C     -2.27124716     -1.05970817     -9.58914528
  C     -1.53439058      0.11325010     -9.68662184
  C     -0.95012760      0.66677695     -8.55818600
  H     -0.38301791      1.58711786     -8.64004228
  H     -2.72780099     -1.48816368    -10.47358532
  H     -1.41418023      0.60107394    -10.64691243
  H     -1.97147771     -1.60996884     -6.26122707
  H      1.51079057      5.28368287     -5.50181089
  C      1.41118774      0.25307549     -5.88630977
  C      2.14495952      0.28290872     -4.69664450
  C      3.48600250     -0.06100637     -4.68195328
  C      4.11507673     -0.45357922     -5.85563448
  C      3.39534323     -0.49590499     -7.04165518
  C      2.05345785     -0.14446243     -7.05958131
  H      5.16308076     -0.73031089     -5.84164975
  H      3.88012390     -0.80533385     -7.96031529
  H      1.50161053     -0.18409880     -7.99173131
  H     -3.00505445     -2.59383525     -8.27580236
  H      4.03842333     -0.02661873     -3.75034122
  H      1.65504988      0.57489920     -3.77324814
  P     -3.40937797     -3.74186190     -1.38790322
  C     -3.62757930     -4.05556478      0.39442296
  C     -4.61525237     -4.88985191      0.92344392
  C     -4.71762748     -5.07523179      2.29415660
  C     -3.83883998     -4.43414082      3.15712873
  C     -2.84499595     -3.61283496      2.64242505
  C     -2.74040431     -3.43166652      1.27272287
  H     -3.92428362     -4.57837994      4.22762405
  H     -5.31097790     -5.39454295      0.26337016
  H     -1.95476833     -2.80132760      0.87105089
  H     -2.14448148     -3.11823446      3.30587632
  C     -2.56998103     -5.24688648     -1.97383800
  C     -1.30483662     -5.12864203     -2.55185372
  C     -0.61606425     -6.25218242     -2.98398358
  C     -1.18304675     -7.51047140     -2.84051967
  C     -2.44301057     -7.64084751     -2.26978776
  C     -3.13359618     -6.51913773     -1.83927173
  H     -4.11797065     -6.63043505     -1.39888594
  H     -0.64558981     -8.38973733     -3.17552263
  H     -2.89112586     -8.62163607     -2.16129289
  H     -0.85968746     -4.14547123     -2.66371024
  H     -5.48921825     -5.72498439      2.69034379
  C     -5.07789917     -3.85961312     -2.09273004
  C     -6.19127837     -3.37432153     -1.39979025
  C     -7.43916838     -3.34705560     -2.00352618
  C     -7.59172896     -3.78905479     -3.31043796
  C     -6.49025452     -4.25994873     -4.01285782
  C     -5.24129866     -4.28980670     -3.41288486
  H     -8.56713321     -3.76545624     -3.78170757
  H     -6.60337459     -4.60399341     -5.03441780
  H     -4.38441733     -4.65471825     -3.96878166
  H      0.36516663     -6.14217228     -3.43164867
  H     -8.29297973     -2.97480124     -1.44870971
  H     -6.08200186     -3.02814837     -0.37843255
  P     -0.04692467      3.83092656      1.23313052
  C     -1.02133864      4.43982676     -0.17424264
  C     -2.26865662      5.04992490     -0.04382744
  C     -2.98360639      5.43270745     -1.16983821
  C     -2.46511782      5.20954169     -2.43762844
  C     -1.23015311      4.58735623     -2.57841130
  C     -0.51820417      4.19711905     -1.45746650
  H     -3.02023562      5.51766320     -3.31585922
  H     -2.68074820      5.23224618      0.94215146
  H      0.44395338      3.70796926     -1.57262479
  H     -0.81794606      4.40936073     -3.56439801
  C      1.56512632      4.63383335      0.95227575
  C      2.71683254      3.94736454      1.34004649
  C      3.97451353      4.49611567      1.14813136
  C      4.09901996      5.74352729      0.55234744
  C      2.96288600      6.43251776      0.14971708
  C      1.70408680      5.88553770      0.34702421
  H      0.82637435      6.42896076      0.01658551
  H      5.08087484      6.17346315      0.39306993
  H      3.05669100      7.40255259     -0.32455118
  H      2.61842893      2.96493264      1.78660219
  H     -3.94999425      5.90940128     -1.05290159
  C     -0.74176476      4.65206713      2.70223839
  C     -1.22856321      3.85850886      3.74160372
  C     -1.76942867      4.43310295      4.88128855
  C     -1.82589468      5.81527824      4.99805920
  C     -1.33779268      6.61647599      3.97385606
  C     -0.79817254      6.04279084      2.83374766
  H     -2.24631210      6.26792645      5.88824136
  H     -1.37716985      7.69578359      4.06365460
  H     -0.41647438      6.67736175      2.04219824
  H      4.85560938      3.94440616      1.45578450
  H     -2.13875474      3.80045681      5.68014986
  H     -1.17889577      2.77760795      3.65609274
