246
Energy =   -372.45358905 au
 Au      1.57398768     -1.17412037      1.40294540
 Au     -0.91815863     -1.64131842      0.73663015
 Au      0.82950878     -1.08848595     -1.60881375
 Au     -0.68180398      0.51085154     -3.21126233
 Au     -0.34197149      0.72048970      2.16105662
 Au     -0.41384879      1.00479616     -0.64974058
 Au     -1.85692907      2.84049776      0.90567355
 Au      0.74100632      3.07985354      0.83557892
  P     -1.40836216      0.23243773     -5.45672076
  C     -2.15721600     -1.41150938     -5.69954360
  C     -3.20657652     -1.67514912     -6.58208237
  C     -3.69481630     -2.96556607     -6.72802896
  C     -3.14538710     -4.00919124     -5.99608905
  C     -2.10957726     -3.75673862     -5.10641285
  C     -1.62485171     -2.46805001     -4.95601814
  H     -3.52589630     -5.01684635     -6.11461499
  H     -3.64863443     -0.86860079     -7.15548161
  H     -0.81942853     -2.27293615     -4.25541317
  H     -1.67609755     -4.56668317     -4.53066438
  C     -0.10872433      0.28019882     -6.73089891
  C      0.97126400      1.14221216     -6.52609402
  C      1.98609796      1.23561290     -7.46513631
  C      1.94110895      0.46222352     -8.61723058
  C      0.87737997     -0.40506785     -8.82667612
  C     -0.14254474     -0.49773349     -7.89084023
  H     -0.96618973     -1.18170811     -8.06107150
  H      2.73578048      0.53366856     -9.35041664
  H      0.83813153     -1.01137257     -9.72417411
  H      1.01132350      1.74220272     -5.62240263
  H     -4.50793360     -3.15597331     -7.41882306
  C     -2.65412864      1.41755436     -6.04926695
  C     -3.34827849      2.16653436     -5.09589419
  C     -4.33362589      3.06150983     -5.48051700
  C     -4.62959354      3.23134315     -6.82604698
  C     -3.92855971      2.51175398     -7.78461645
  C     -2.94545434      1.61201332     -7.40240443
  H     -5.39948649      3.93158558     -7.12824880
  H     -4.14695396      2.65254048     -8.83682006
  H     -2.39293763      1.06655236     -8.15921075
  H      2.81565565      1.91323815     -7.29791507
  H     -4.86675453      3.63089208     -4.72727440
  H     -3.10341059      2.05092701     -4.04471962
  P     -2.76692235     -2.98565665      0.06283347
  C     -3.62197577     -2.55894010     -1.49034031
  C     -4.36618440     -3.48551249     -2.22555123
  C     -5.06237954     -3.08728897     -3.35640181
  C     -5.03112005     -1.76204999     -3.76809417
  C     -4.27871796     -0.83754398     -3.05760135
  C     -3.57340963     -1.23612587     -1.93350497
  H     -5.58227625     -1.45230094     -4.64809184
  H     -4.39696371     -4.52400133     -1.91689964
  H     -2.97572427     -0.51435709     -1.38834806
  H     -4.24244140      0.19701964     -3.37718778
  C     -4.10854416     -3.04077058      1.29184103
  C     -3.97864435     -2.28108315      2.45618982
  C     -4.98190390     -2.27449584      3.41235589
  C     -6.13475931     -3.02068008      3.21385086
  C     -6.27753100     -3.77900236      2.05863658
  C     -5.27331872     -3.79187593      1.10417231
  H     -5.39422716     -4.38754518      0.20668091
  H     -6.92188218     -3.01263898      3.95855668
  H     -7.17580674     -4.36429836      1.90033483
  H     -3.08226702     -1.68928238      2.61035119
  H     -5.63441522     -3.81686376     -3.91769985
  C     -2.28424394     -4.71860951     -0.18755126
  C     -1.63080014     -5.07197959     -1.37321938
  C     -1.16607931     -6.36299550     -1.56323077
  C     -1.32463196     -7.31414390     -0.56366565
  C     -1.94978547     -6.96758386      0.62635772
  C     -2.42499127     -5.67837342      0.81660537
  H     -0.95844791     -8.32312220     -0.71179645
  H     -2.07183416     -7.70535481      1.41087582
  H     -2.91458135     -5.41674170      1.74788918
  H     -4.86371680     -1.68126187      4.31184136
  H     -0.67587969     -6.62709862     -2.49331647
  H     -1.49282126     -4.32787222     -2.15092506
  P     -4.18838837      3.38105294      0.95342262
  C     -4.71083996      4.18679771     -0.59200699
  C     -6.00795012      4.09803437     -1.10378755
  C     -6.34382683      4.75336439     -2.27855806
  C     -5.39216440      5.50183984     -2.95898212
  C     -4.09598590      5.58569955     -2.46622001
  C     -3.75835107      4.93016197     -1.29351284
  H     -5.66120672      6.02354752     -3.86989945
  H     -6.75659770      3.51249655     -0.58233570
  H     -2.74477873      4.99354306     -0.91064318
  H     -3.34751827      6.16261246     -2.99704599
  C     -4.66185336      4.55526817      2.25963157
  C     -3.95723156      4.51233867      3.46543519
  C     -4.29300912      5.36029742      4.50839281
  C     -5.32873550      6.27228830      4.35715590
  C     -6.02520371      6.33476514      3.15793357
  C     -5.69675432      5.48293267      2.11463173
  H     -6.24307093      5.54204879      1.18008762
  H     -5.58921288      6.93761582      5.17186087
  H     -6.82959970      7.05025861      3.03303538
  H     -3.14035943      3.80718245      3.58372355
  H     -7.35478463      4.68154412     -2.66261865
  C     -5.38768581      2.01936647      1.12854737
  C     -5.10775597      0.82917441      0.45405793
  C     -5.98942392     -0.23751311      0.50394569
  C     -7.15583569     -0.13913949      1.25056135
  C     -7.43805939      1.03261760      1.93906639
  C     -6.56334236      2.10859620      1.87719135
  H     -7.84179731     -0.97685919      1.29700433
  H     -8.34709965      1.11447214      2.52349669
  H     -6.79794182      3.02250148      2.41061186
  H     -3.74208666      5.31181944      5.44067730
  H     -5.76469277     -1.14859441     -0.03840501
  H     -4.18916715      0.74991657     -0.11741015
  P      3.67003815     -1.82818374      2.40762891
  C      4.06326863     -0.78459811      3.85017684
  C      5.00866337     -1.16815204      4.80665576
  C      5.26100983     -0.36570217      5.90710666
  C      4.57130680      0.82840263      6.07400836
  C      3.63023897      1.21879909      5.13199194
  C      3.38116132      0.41882171      4.02711989
  H      4.76321843      1.45132451      6.93958695
  H      5.54619956     -2.10231081      4.68962864
  H      2.64631852      0.72901184      3.29149799
  H      3.08232229      2.14517121      5.26162304
  C      5.27724964     -2.04283871      1.57737656
  C      5.46931744     -3.14602623      0.73935996
  C      6.67024482     -3.32704685      0.07342492
  C      7.69483620     -2.40166555      0.22302980
  C      7.50859778     -1.29294117      1.03723593
  C      6.30767830     -1.11003024      1.70684639
  H      6.17427574     -0.24236260      2.34288275
  H      8.63562566     -2.54373033     -0.29537654
  H      8.30504236     -0.56752384      1.15710482
  H      4.67306582     -3.87155726      0.61851489
  H      5.99592554     -0.67535631      6.64090735
  C      3.38219106     -3.45807011      3.17195398
  C      2.06580415     -3.81878907      3.46887677
  C      1.77631927     -5.02917845      4.07861908
  C      2.80397030     -5.90810352      4.39405414
  C      4.11649554     -5.56700137      4.09812182
  C      4.40640616     -4.35224475      3.49556870
  H      2.58151994     -6.85741425      4.86669104
  H      4.92262015     -6.25018778      4.33908503
  H      5.43660720     -4.10383062      3.26858305
  H      6.80565267     -4.19259747     -0.56501615
  H      0.74761137     -5.28712445      4.30276838
  H      1.25865988     -3.14241657      3.20949743
  P      2.25970768     -2.85860413     -2.23832148
  C      1.86270695     -3.55358835     -3.86855328
  C      1.88314262     -2.68957051     -4.96982938
  C      1.52857305     -3.14640747     -6.22811260
  C      1.12662318     -4.46462578     -6.40281900
  C      1.08711705     -5.32495596     -5.31468842
  C      1.45292689     -4.87446229     -4.05431381
  H      0.84191651     -4.81862967     -7.38652429
  H      2.18460655     -1.65551622     -4.83481080
  H      1.42675879     -5.55539752     -3.21130950
  H      0.77350151     -6.35412313     -5.44553120
  C      2.41968133     -4.30345511     -1.13996198
  C      1.44284769     -4.52730469     -0.16976041
  C      1.53102723     -5.60874196      0.69221371
  C      2.60588135     -6.48125292      0.59964998
  C      3.58482501     -6.27245957     -0.36339470
  C      3.49439474     -5.19363502     -1.23001643
  H      4.26327241     -5.03751061     -1.97831599
  H      2.68192319     -7.32250348      1.27848406
  H      4.42498018     -6.95270068     -0.44023366
  H      0.59991875     -3.84890584     -0.09484509
  H      1.55827766     -2.46991281     -7.07446257
  C      3.95349016     -2.22762470     -2.43751312
  C      4.36384432     -1.18876449     -1.59842060
  C      5.61995539     -0.62150556     -1.73223682
  C      6.49175386     -1.09125636     -2.70524320
  C      6.10105395     -2.13082931     -3.53807142
  C      4.84031378     -2.69450077     -3.41074903
  H      7.47382588     -0.64644343     -2.81406374
  H      6.77939181     -2.50207513     -4.29740481
  H      4.53942849     -3.49367854     -4.07825884
  H      0.75996560     -5.76755990      1.43733111
  H      5.91799550      0.18693964     -1.07463173
  H      3.68525582     -0.82307994     -0.83487628
  P     -0.67359421      1.26265480      4.51425274
  C     -2.36845499      1.05445602      5.14753123
  C     -2.65286397      0.87786566      6.50457949
  C     -3.96414984      0.75427402      6.93683072
  C     -5.00851907      0.80408623      6.02364326
  C     -4.73689892      0.96633233      4.67166172
  C     -3.42614201      1.08468596      4.23617748
  H     -6.03343178      0.71173761      6.36309507
  H     -1.84367936      0.83362995      7.22466411
  H     -3.21771257      1.19999439      3.17682260
  H     -5.54837550      1.00336181      3.95433243
  C     -0.29735626      3.01708888      4.83815681
  C      0.79789015      3.57275974      4.17086566
  C      1.11874114      4.91199531      4.31721678
  C      0.34749987      5.72114209      5.14135443
  C     -0.73705475      5.18084330      5.81762611
  C     -1.06178219      3.83989220      5.66713825
  H     -1.91409051      3.43206613      6.19825697
  H      0.59180210      6.77068668      5.25471231
  H     -1.33831778      5.80709164      6.46653978
  H      1.40311532      2.94266464      3.52803932
  H     -4.17060151      0.62039521      7.99227590
  C      0.35452329      0.36592549      5.72223400
  C      0.65639534     -0.97124314      5.45365692
  C      1.44415904     -1.70729899      6.32364722
  C      1.94223790     -1.11521992      7.47652708
  C      1.64772519      0.21258054      7.75497194
  C      0.86152937      0.95254877      6.88430658
  H      2.56339674     -1.68747522      8.15540901
  H      2.03601217      0.67826576      8.65331761
  H      0.64643025      1.99203960      7.10406794
  H      1.96791299      5.32453495      3.78394340
  H      1.67439913     -2.74225348      6.09705304
  H      0.27189384     -1.43259309      4.54975243
  P      2.96224487      3.81972376      0.34669148
  C      4.47605784      3.18951125      1.15016330
  C      5.56508146      2.68650205      0.43573245
  C      6.71113114      2.27575773      1.09964860
  C      6.78567276      2.35678483      2.48381992
  C      5.70603881      2.85079087      3.20393192
  C      4.55916562      3.26011510      2.54307551
  H      7.68602606      2.04501389      2.99987292
  H      5.52392423      2.62840408     -0.64554132
  H      3.72159014      3.65155263      3.11037414
  H      5.75830299      2.91870385      4.28425823
  C      3.16936315      5.61940789      0.46363226
  C      2.03546625      6.40800306      0.67077804
  C      2.14127146      7.78637133      0.76663445
  C      3.38459827      8.39461316      0.66140729
  C      4.52068086      7.62071261      0.46282420
  C      4.41806179      6.24222170      0.36625925
  H      5.30989905      5.64322635      0.21900804
  H      3.46926822      9.47220788      0.73797215
  H      5.49292410      8.09319401      0.38452250
  H      1.06449901      5.93072657      0.75791159
  H      7.55356832      1.90004320      0.53033715
  C      3.23322403      3.41556338     -1.40866379
  C      3.04971335      2.08246731     -1.78834184
  C      3.20674275      1.69090639     -3.10705259
  C      3.54465448      2.63148484     -4.07137143
  C      3.71278548      3.96063512     -3.71052312
  C      3.55656471      4.35350100     -2.38883826
  H      3.67798379      2.32695909     -5.10272196
  H      3.96929823      4.69834276     -4.46195438
  H      3.69018072      5.39467854     -2.11908098
  H      1.25235332      8.38555073      0.92661802
  H      3.06713131      0.65086174     -3.38073172
  H      2.78333584      1.34772953     -1.03538292
