246
Energy =   -372.44550185 au
 Au     -1.40321208      0.33925123      0.81169320
 Au      0.71209675     -0.72711539     -0.28619899
 Au     -1.54866436     -0.15527010     -2.03054045
 Au     -0.22763199      1.94941798     -1.20233054
 Au     -1.05056016     -2.36311161      1.28881811
 Au      0.64660289      4.09632960     -2.53137838
 Au      1.17460995      3.89600112     -0.02119081
 Au      0.56838383     -0.65022386      2.57917888
  P      2.75101137     -1.38696753     -1.32115498
  C      4.02100062     -2.00826443     -0.17508143
  C      4.72643542     -3.19722813     -0.36566536
  C      5.67246626     -3.60888105      0.56153228
  C      5.92895252     -2.84053924      1.68769815
  C      5.22003687     -1.66488809      1.89774816
  C      4.26551277     -1.25891355      0.98030908
  H      6.67308511     -3.16064841      2.40732275
  H      4.53964548     -3.80457871     -1.24355196
  H      3.69919833     -0.34948866      1.15467165
  H      5.40864247     -1.06755700      2.78250661
  C      3.56617766     -0.00029126     -2.17679595
  C      2.77031792      0.81016189     -2.99103926
  C      3.31302359      1.89727493     -3.65401437
  C      4.66010769      2.20044775     -3.50714801
  C      5.46109226      1.40244938     -2.70306310
  C      4.92122564      0.30704889     -2.04353156
  H      5.55795509     -0.31294378     -1.42319440
  H      5.08119330      3.05668989     -4.02136437
  H      6.51437290      1.63042933     -2.58769288
  H      1.71564175      0.58426039     -3.10380648
  H      6.21360483     -4.53389925      0.39982919
  C      2.62884680     -2.66793929     -2.60480636
  C      1.48845295     -3.47074569     -2.63788471
  C      1.37131414     -4.49817180     -3.56054277
  C      2.39285458     -4.72766649     -4.47207830
  C      3.52280010     -3.91991164     -4.46519766
  C      3.64314531     -2.89510729     -3.53970412
  H      2.30427810     -5.53041953     -5.19446227
  H      4.31584995     -4.09011331     -5.18393399
  H      4.52582487     -2.26538271     -3.54122397
  H      2.68244746      2.51136843     -4.28645719
  H      0.47904736     -5.11367298     -3.57402251
  H      0.68729649     -3.27774568     -1.93247868
  P     -2.48476609     -1.66176631     -3.64383552
  C     -3.24153553     -3.26795740     -3.22716479
  C     -4.55628828     -3.61177972     -3.54433742
  C     -5.05519334     -4.86155985     -3.20666047
  C     -4.25402186     -5.78057152     -2.54402550
  C     -2.95258346     -5.43930291     -2.19929549
  C     -2.45462445     -4.18996434     -2.52923646
  H     -4.64468575     -6.75820034     -2.28751043
  H     -5.19067533     -2.90491614     -4.06641739
  H     -1.44047959     -3.92309458     -2.25126126
  H     -2.32440642     -6.14714966     -1.67062962
  C     -1.17082713     -2.14160249     -4.81070010
  C     -0.04117371     -1.32553813     -4.89422501
  C      0.98978694     -1.62256177     -5.77156482
  C      0.90194386     -2.74295788     -6.58678286
  C     -0.21266568     -3.56761146     -6.50923065
  C     -1.23951774     -3.27577691     -5.62436524
  H     -2.09614015     -3.93689259     -5.56073031
  H      1.70470425     -2.97733705     -7.27583180
  H     -0.28147142     -4.44708284     -7.13887132
  H      0.02601273     -0.44661646     -4.26209466
  H     -6.07536074     -5.11886340     -3.46691274
  C     -3.71090476     -0.82012314     -4.69091224
  C     -4.26424154      0.37240345     -4.22109577
  C     -5.21307730      1.05623685     -4.96503598
  C     -5.61557894      0.56006365     -6.19745159
  C     -5.06052348     -0.61699214     -6.68413176
  C     -4.11518506     -1.30437856     -5.93874504
  H     -6.35747360      1.09194204     -6.78126345
  H     -5.36718915     -1.00318825     -7.64918523
  H     -3.68455650     -2.21911815     -6.33003781
  H      1.86371299     -0.98230984     -5.81311852
  H     -5.63642136      1.97759276     -4.58160725
  H     -3.94491353      0.76493930     -3.26145681
  P      2.13970878      4.20354432      2.12958608
  C      2.18641535      5.90264784      2.76883351
  C      1.37774308      6.33070773      3.82437379
  C      1.37279055      7.66314925      4.20919468
  C      2.16599584      8.58617672      3.54230691
  C      2.96179482      8.17475354      2.48090442
  C      2.96624915      6.84582826      2.09007766
  H      2.16122627      9.62628282      3.84605982
  H      0.75251922      5.61892533      4.35150336
  H      3.58130036      6.53063270      1.25363292
  H      3.57836450      8.89276020      1.95271488
  C      3.87931270      3.66733227      2.09509304
  C      4.19732930      2.59436564      1.25753807
  C      5.49912464      2.12945473      1.16601593
  C      6.50602781      2.73483704      1.90655831
  C      6.20326403      3.80493361      2.73844616
  C      4.89885100      4.26899056      2.83487353
  H      4.67516857      5.10966790      3.48145784
  H      7.52616102      2.37765972      1.82948278
  H      6.98729849      4.28566009      3.31179741
  H      3.41376176      2.13104912      0.66587161
  H      0.74529502      7.97960414      5.03446013
  C      1.44636197      3.24632431      3.52079196
  C      0.25737020      2.54532595      3.32640040
  C     -0.33721381      1.85194831      4.37246229
  C      0.25681434      1.84688189      5.62751698
  C      1.44939934      2.52874497      5.82843978
  C      2.04190594      3.22236589      4.78458451
  H     -0.21107163      1.31607378      6.44833013
  H      1.91895960      2.52323351      6.80536483
  H      2.97173263      3.75417712      4.95237258
  H      5.73096982      1.30014242      0.50744957
  H     -1.27882817      1.34000971      4.21069592
  H     -0.21850463      2.56778938      2.35321296
  P     -3.29358094      1.52840038      1.66083205
  C     -4.64061144      1.63104001      0.43897411
  C     -5.43742160      2.76234160      0.25592375
  C     -6.44874299      2.75913575     -0.69361136
  C     -6.68364008      1.62889449     -1.46413605
  C     -5.89824635      0.49656575     -1.28833714
  C     -4.88131868      0.50154119     -0.34765925
  H     -7.47687516      1.62916054     -2.20246625
  H     -5.26325680      3.64984193      0.85343234
  H     -4.26102394     -0.37953032     -0.21779465
  H     -6.07598834     -0.38990390     -1.88703182
  C     -2.87210216      3.25721544      2.02929874
  C     -2.81092951      3.77880593      3.32270554
  C     -2.30398909      5.05180323      3.54440444
  C     -1.84333004      5.81775420      2.48339399
  C     -1.90361761      5.31230074      1.19010935
  C     -2.41150746      4.04361711      0.96628180
  H     -2.44996902      3.65055575     -0.04433163
  H     -1.43618463      6.80609356      2.66168511
  H     -1.55429386      5.90745729      0.35418728
  H     -3.15563916      3.18696546      4.16286924
  H     -7.05821834      3.64497604     -0.82983208
  C     -4.13872330      0.86533565      3.13244026
  C     -3.71943411     -0.35961546      3.65364412
  C     -4.36643766     -0.92766589      4.73979289
  C     -5.43916722     -0.27124403      5.32661209
  C     -5.86742035      0.94775481      4.81638690
  C     -5.22929121      1.51124059      3.72281627
  H     -5.94556003     -0.71176710      6.17737475
  H     -6.70894279      1.45922625      5.26893368
  H     -5.58166559      2.45381747      3.31888389
  H     -2.26219830      5.44226243      4.55466891
  H     -4.03470707     -1.88682633      5.12196557
  H     -2.88153685     -0.87662597      3.19635087
  P      1.83752217     -1.42947381      4.46506161
  C      0.75850128     -2.03009110      5.80403160
  C      1.18972938     -2.94761364      6.76717535
  C      0.34459328     -3.33492373      7.79568776
  C     -0.94272635     -2.81978191      7.87499897
  C     -1.39214289     -1.93307402      6.90642108
  C     -0.54935422     -1.54687125      5.87625318
  H     -1.59739315     -3.11583459      8.68609041
  H      2.18773657     -3.36693752      6.70743241
  H     -0.90793244     -0.86447672      5.11360497
  H     -2.40097644     -1.53938746      6.95332832
  C      3.08742805     -0.38576231      5.28124084
  C      3.83087769      0.47416913      4.46674500
  C      4.81742455      1.28162544      5.00918146
  C      5.05884852      1.26222004      6.37652534
  C      4.30622604      0.43524281      7.19834119
  C      3.32812611     -0.38563589      6.65673379
  H      2.74641443     -1.02464452      7.31060768
  H      5.82729249      1.89761384      6.80061749
  H      4.48168274      0.42481789      8.26773783
  H      3.62138306      0.51931136      3.40287607
  H      0.69427672     -4.04049107      8.54027086
  C      2.74854118     -2.93920851      4.00106605
  C      2.20895447     -3.74929791      2.99897598
  C      2.83324369     -4.92582445      2.61969474
  C      4.01296991     -5.31341844      3.24143532
  C      4.56366521     -4.51564234      4.23515124
  C      3.94061719     -3.33482866      4.61210771
  H      4.50490204     -6.23305457      2.94743275
  H      5.48594436     -4.81282557      4.72064986
  H      4.38611018     -2.71416169      5.38113337
  H      5.39556740      1.93326319      4.36493656
  H      2.39940537     -5.53708522      1.83587259
  H      1.28878657     -3.44959284      2.50786375
  P      0.38777608      4.64240776     -4.82767985
  C      1.94561861      4.80135601     -5.75263197
  C      2.06763381      4.54211076     -7.12026051
  C      3.28943372      4.70028698     -7.75663056
  C      4.40268224      5.12007856     -7.04155848
  C      4.29336849      5.38231378     -5.68222464
  C      3.07424495      5.22180623     -5.04298973
  H      5.35561733      5.24225525     -7.54284684
  H      1.20661769      4.20911941     -7.68838659
  H      2.98934757      5.42317782     -3.97984061
  H      5.15850656      5.71356765     -5.11934963
  C     -0.48784242      6.20596464     -5.13849719
  C     -1.19244536      6.79353188     -4.08558754
  C     -1.88278198      7.98073926     -4.27380999
  C     -1.87261227      8.59858575     -5.51654024
  C     -1.17059733      8.02619974     -6.56953909
  C     -0.48212242      6.83821179     -6.38495965
  H      0.06585186      6.39965479     -7.21137343
  H     -2.40890022      9.52856147     -5.66442931
  H     -1.15831999      8.50850179     -7.54006988
  H     -1.19497801      6.31239592     -3.11257260
  H      3.37105577      4.49518132     -8.81779361
  C     -0.57593421      3.41592718     -5.76840050
  C      0.02238574      2.22039944     -6.17803775
  C     -0.71584188      1.25480999     -6.84376548
  C     -2.06806609      1.45386587     -7.08626291
  C     -2.67871301      2.62453464     -6.65941851
  C     -1.94043060      3.59798344     -6.00435696
  H     -2.64395126      0.69670619     -7.60577642
  H     -3.73537325      2.78360720     -6.84165013
  H     -2.42560205      4.51246129     -5.68211154
  H     -2.42615947      8.42529122     -3.44789952
  H     -0.23311046      0.34355478     -7.17712278
  H      1.07680098      2.05159283     -5.98668620
  P     -2.05613303     -4.46705850      1.61761049
  C     -1.07220037     -5.85437659      0.97554761
  C     -1.28291838     -7.18570273      1.34492925
  C     -0.48068302     -8.19013102      0.82634255
  C      0.54544382     -7.88339661     -0.05781200
  C      0.77433464     -6.56293595     -0.42038594
  C     -0.02924485     -5.55837536      0.09499467
  H      1.17085891     -8.67256795     -0.45811492
  H     -2.06880108     -7.43594845      2.04805515
  H      0.15415579     -4.52456676     -0.17752685
  H      1.57830429     -6.31224642     -1.10332106
  C     -3.74077409     -4.61237385      0.94968476
  C     -4.28837018     -3.49798337      0.31062011
  C     -5.58231369     -3.52853866     -0.18366774
  C     -6.34726155     -4.67882671     -0.04984839
  C     -5.81183458     -5.79668361      0.57706913
  C     -4.51952239     -5.76626966      1.07675448
  H     -4.11559035     -6.64186737      1.57109871
  H     -7.35952301     -4.70552948     -0.43552010
  H     -6.40592203     -6.69698897      0.68163911
  H     -3.68836694     -2.60002962      0.20242192
  H     -0.65509382     -9.21907612      1.11856677
  C     -2.23469177     -4.83927616      3.38566854
  C     -1.11133724     -5.24729561      4.11217925
  C     -1.19522434     -5.45088280      5.47948275
  C     -2.39632844     -5.23744408      6.14339814
  C     -3.51165381     -4.81146615      5.43557014
  C     -3.43228455     -4.60724615      4.06617682
  H     -2.46146596     -5.40051073      7.21263402
  H     -4.45037903     -4.64111180      5.94994259
  H     -4.30872768     -4.27662993      3.52040575
  H     -5.99223789     -2.65428589     -0.67638401
  H     -0.31908384     -5.77418615      6.02982133
  H     -0.16952623     -5.41290297      3.59968798
