246
Energy =   -372.45366784 au
 Au      1.02887950     -1.86987642      1.98321941
 Au      0.58141008     -1.26162189     -0.91843485
 Au     -2.32807494      1.96693201      0.27508335
 Au      1.99610029      0.36338834      0.98795461
 Au     -0.30652890     -0.25731968     -3.27395861
 Au     -2.04815896     -0.61772527     -1.31980032
 Au     -0.72435918      0.09319363      1.33025710
 Au     -2.09242358      1.78064245      2.88324988
  P     -1.50979429      2.70555777      5.00276583
  C     -2.52266437      2.74038910      6.51204006
  C     -3.02067758      1.52351989      6.99161662
  C     -3.83003820      1.48778114      8.11484909
  C     -4.16638029      2.66812888      8.76555724
  C     -3.69006350      3.88129504      8.28899660
  C     -2.87434163      3.92134259      7.16804481
  H     -4.80319856      2.64118865      9.64180049
  H     -2.76609875      0.60166938      6.47815114
  H     -2.50673766      4.87344305      6.80296260
  H     -3.95439471      4.80427700      8.79182534
  C     -1.04193349      4.43329857      4.67775442
  C     -1.72123353      5.12076374      3.66890748
  C     -1.38006199      6.42497512      3.34607814
  C     -0.34786475      7.05870255      4.02492585
  C      0.33504362      6.38579595      5.02935636
  C     -0.00763709      5.08281895      5.35627989
  H      0.53321212      4.56294076      6.13905701
  H     -0.07537335      8.07626491      3.77055699
  H      1.14002064      6.87865751      5.56213067
  H     -2.52363444      4.62422674      3.13286288
  H     -4.20282873      0.53785698      8.48037154
  C      0.07238828      1.95867795      5.51803705
  C      1.04022136      1.77085688      4.52633350
  C      2.25656554      1.17969287      4.82142003
  C      2.52685061      0.76015455      6.11816901
  C      1.57432345      0.93804504      7.11160466
  C      0.35488682      1.53190948      6.81594710
  H      3.47811251      0.29623270      6.35157016
  H      1.78063957      0.61389844      8.12504302
  H     -0.37866835      1.66741042      7.60213704
  H     -1.91968030      6.94487043      2.56206789
  H      2.99471747      1.04410859      4.03823221
  H      0.83380919      2.09710973      3.51242501
  P      1.63389079     -3.40379156      3.72071328
  C      3.11910600     -2.75853519      4.54959874
  C      3.44458099     -3.08188552      5.87064281
  C      4.56771981     -2.53418373      6.47079770
  C      5.37843232     -1.65202687      5.76753703
  C      5.06233752     -1.31893813      4.45711479
  C      3.94142237     -1.86909183      3.85609308
  H      6.25310821     -1.22225601      6.24126631
  H      2.80756836     -3.75468888      6.43352775
  H      3.69547581     -1.60377082      2.83366983
  H      5.68436499     -0.62422347      3.90356186
  C      1.96827275     -5.15659516      3.37084033
  C      1.12971719     -5.79627234      2.45252996
  C      1.34518293     -7.11984301      2.10378122
  C      2.40744167     -7.81983140      2.66052523
  C      3.24989898     -7.19198802      3.56795416
  C      3.03545746     -5.86804897      3.92192765
  H      3.70346323     -5.38599146      4.62628754
  H      2.58066981     -8.85312159      2.38407572
  H      4.08088266     -7.73462306      4.00335289
  H      0.30842390     -5.24532923      2.00517685
  H      4.80896998     -2.79326265      7.49509012
  C      0.41755086     -3.39995397      5.07387370
  C      0.17510022     -2.17546088      5.70710139
  C     -0.77558949     -2.07640677      6.70868286
  C     -1.51145178     -3.19537462      7.08123388
  C     -1.28955843     -4.41011461      6.44800214
  C     -0.33224502     -4.51544360      5.44883253
  H     -2.25617948     -3.11852650      7.86460295
  H     -1.86264835     -5.28426065      6.73454138
  H     -0.16325211     -5.46948849      4.96262633
  H      0.68659703     -7.60229576      1.39039129
  H     -0.93998282     -1.12420263      7.20081234
  H      0.74508285     -1.30023272      5.41308862
  P     -2.64570936      3.36246477     -1.62318756
  C     -4.03113233      3.04054649     -2.76106829
  C     -4.89135051      4.03665595     -3.22648688
  C     -5.94608220      3.71299598     -4.06747040
  C     -6.15917887      2.39585649     -4.45095703
  C     -5.31291552      1.39524324     -3.98908547
  C     -4.25998757      1.71822430     -3.14961984
  H     -6.98799471      2.14663122     -5.10282859
  H     -4.73709939      5.06686223     -2.92718218
  H     -3.60696982      0.93352787     -2.77946939
  H     -5.47846751      0.36288409     -4.27506279
  C     -1.19496691      3.44011281     -2.72115833
  C      0.01011341      2.89521386     -2.27353440
  C      1.15593275      2.97309402     -3.05150410
  C      1.11507093      3.60996234     -4.28428703
  C     -0.07961724      4.14733492     -4.74377841
  C     -1.23040319      4.05340252     -3.97617644
  H     -2.16354168      4.45527103     -4.35474657
  H      2.01306177      3.68919682     -4.88562885
  H     -0.11715555      4.63939991     -5.70859873
  H      0.05206741      2.42593674     -1.29726342
  H     -6.60715317      4.49509818     -4.42215215
  C     -2.88789902      5.07806048     -1.06885015
  C     -3.73125645      5.26677224      0.03102729
  C     -3.93891290      6.53164428      0.55610765
  C     -3.29580459      7.62870473     -0.00341831
  C     -2.45106758      7.45326563     -1.09067829
  C     -2.24623681      6.18780058     -1.62146620
  H     -3.45292765      8.61857551      0.40827729
  H     -1.94809706      8.30616753     -1.53155564
  H     -1.58047236      6.06552528     -2.46789749
  H      2.08424061      2.54975772     -2.68555779
  H     -4.60144501      6.66159940      1.40392256
  H     -4.22539940      4.40900969      0.47586655
  P      2.15543433     -3.10694076     -1.32178220
  C      1.20259786     -4.65564850     -1.26037480
  C      1.66674745     -5.85164020     -1.81718378
  C      0.88849304     -6.99746246     -1.76497515
  C     -0.36412032     -6.96734922     -1.16501442
  C     -0.83901681     -5.78428472     -0.61453438
  C     -0.05909097     -4.63950458     -0.66240513
  H     -0.97334710     -7.86297673     -1.13423621
  H      2.63670640     -5.87968984     -2.30063861
  H     -0.43492867     -3.71440772     -0.23825360
  H     -1.82002184     -5.75017468     -0.15447818
  C      3.56227269     -3.35788204     -0.18862675
  C      4.39909988     -2.26385589      0.05854148
  C      5.47829961     -2.37731295      0.92001958
  C      5.72808379     -3.58263061      1.56418994
  C      4.89363000     -4.66842201      1.34088991
  C      3.81804055     -4.56027209      0.47157128
  H      3.17397213     -5.41669185      0.30830437
  H      6.56772301     -3.67165944      2.24320662
  H      5.07867052     -5.60896496      1.84683703
  H      4.20102085     -1.31575186     -0.43038641
  H      1.25966632     -7.91842957     -2.19921364
  C      2.89980877     -3.15229146     -2.98501135
  C      2.03233028     -3.31736762     -4.06985037
  C      2.50950182     -3.28304187     -5.36859146
  C      3.86114086     -3.06755991     -5.60618246
  C      4.72940376     -2.89083053     -4.53861768
  C      4.25473358     -2.93174937     -3.23475424
  H      4.23482366     -3.03483244     -6.62277170
  H      5.78536239     -2.72500936     -4.71824456
  H      4.94632701     -2.80125362     -2.41045921
  H      6.12303590     -1.52247155      1.09060641
  H      1.82455081     -3.42048933     -6.19750243
  H      0.97592076     -3.48355951     -3.88699506
  P      3.43891052      2.14745167      0.49169405
  C      2.50108490      3.67440165      0.17775532
  C      1.27361207      3.82789225      0.82854001
  C      0.49230798      4.95129972      0.61376455
  C      0.92489416      5.93715613     -0.26245828
  C      2.13875839      5.79327372     -0.92047850
  C      2.92434737      4.67105952     -0.70356360
  H      0.31228527      6.81430242     -0.43489374
  H      0.92796154      3.05417176      1.50547985
  H      3.86911661      4.56722821     -1.22489034
  H      2.47674227      6.55900460     -1.60896931
  C      4.45592713      1.86012757     -0.98331950
  C      4.01521175      0.89909400     -1.89794366
  C      4.76338161      0.59569508     -3.02356838
  C      5.96072906      1.25877016     -3.25769910
  C      6.40379359      2.22378183     -2.36319995
  C      5.66194810      2.52154227     -1.22988149
  H      6.02520146      3.26228886     -0.52675086
  H      6.55158287      1.01791598     -4.13363757
  H      7.33815219      2.74241615     -2.54352368
  H      3.08062715      0.37806868     -1.71623317
  H     -0.45605888      5.05358590      1.12914970
  C      4.59638293      2.55618622      1.82668611
  C      4.28147570      3.51882464      2.78904833
  C      5.10690844      3.70763903      3.88699384
  C      6.25045619      2.93641454      4.04244763
  C      6.56800660      1.97067389      3.09575793
  C      5.74296814      1.77374523      2.00000642
  H      6.89422558      3.08624621      4.90102365
  H      7.46194114      1.36855935      3.21054627
  H      5.98999356      1.01134711      1.26869856
  H      4.41635899     -0.16845100     -3.70982641
  H      4.85405700      4.46071317      4.62440450
  H      3.38899780      4.12431061      2.67551949
  P     -4.11776673     -1.35069050     -0.37732729
  C     -4.41411840     -3.09415037     -0.79160489
  C     -5.23439874     -3.91707258     -0.01315434
  C     -5.39127786     -5.25508926     -0.33734083
  C     -4.73191477     -5.79078088     -1.43641920
  C     -3.91516336     -4.98277566     -2.21579519
  C     -3.75802271     -3.64357246     -1.89477159
  H     -4.85364840     -6.83870374     -1.68409355
  H     -5.74272257     -3.50651638      0.85209305
  H     -3.11482446     -3.01415230     -2.50062279
  H     -3.39574373     -5.39576566     -3.07317905
  C     -5.67780337     -0.46966171     -0.67921248
  C     -5.72332659      0.90393365     -0.41915553
  C     -6.86172567      1.64211485     -0.69413744
  C     -7.97092258      1.02007943     -1.25246357
  C     -7.93288404     -0.33886131     -1.53177041
  C     -6.79577509     -1.08128676     -1.25022770
  H     -6.77686266     -2.14150684     -1.47454346
  H     -8.86090797      1.59652154     -1.47537965
  H     -8.79383134     -0.82646886     -1.97400058
  H     -4.84916173      1.39969644     -0.00723820
  H     -6.02880965     -5.88431986      0.27274739
  C     -3.91510900     -1.40588897      1.43098820
  C     -2.88675179     -2.22233680      1.91637364
  C     -2.56132513     -2.22750662      3.26253454
  C     -3.24284594     -1.39922183      4.14510057
  C     -4.26329480     -0.58324719      3.67585090
  C     -4.60196457     -0.58936312      2.32785684
  H     -2.97987021     -1.39593671      5.19636648
  H     -4.80881353      0.05356163      4.36218138
  H     -5.40706131      0.04608556      1.97861620
  H     -6.87894559      2.70513531     -0.48244608
  H     -1.77201571     -2.87734936      3.62103994
  H     -2.34603365     -2.86580733      1.23043743
  P     -0.19890266     -0.08447015     -5.65383943
  C     -1.01181080      1.34384606     -6.44025545
  C     -0.40318339      2.15650334     -7.39747863
  C     -1.09197154      3.23009058     -7.94484766
  C     -2.39193550      3.50593948     -7.54415678
  C     -3.00476447      2.70583369     -6.58772204
  C     -2.31813565      1.63635285     -6.03739190
  H     -2.92793785      4.34298657     -7.97566971
  H      0.61078914      1.94941390     -7.71918271
  H     -2.79657791      1.01517789     -5.28726430
  H     -4.02049027      2.91475121     -6.27119636
  C     -1.13068927     -1.47917801     -6.35824451
  C     -1.37245815     -2.59734434     -5.55778282
  C     -2.07780275     -3.68411614     -6.04918607
  C     -2.55829274     -3.66642090     -7.35136280
  C     -2.33721290     -2.55537318     -8.15445933
  C     -1.63206068     -1.46749922     -7.66383941
  H     -1.47901755     -0.59784525     -8.29298274
  H     -3.11107284     -4.51453712     -7.73789549
  H     -2.71875460     -2.53400789     -9.16866633
  H     -1.00920509     -2.60816396     -4.53559720
  H     -0.61041605      3.85013697     -8.69204442
  C      1.43721915     -0.14852712     -6.45390616
  C      2.47524279      0.56850589     -5.85239873
  C      3.73807529      0.59607107     -6.42241039
  C      3.98866434     -0.11236943     -7.59013532
  C      2.97042840     -0.84470205     -8.18517355
  C      1.70178665     -0.86185895     -7.62463618
  H      4.97662571     -0.09415287     -8.03480247
  H      3.16172843     -1.40143346     -9.09510285
  H      0.91413157     -1.43285788     -8.10223961
  H     -2.25573477     -4.54359353     -5.41242458
  H      4.52804135      1.17361907     -5.95615895
  H      2.28382180      1.11078078     -4.93237247
