246
Energy =   -372.45648670 au
 Au     -1.23214064      1.25951096     -0.82241171
 Au     -1.01359096      0.97346040      2.91188401
 Au      1.28091399     -3.46142550     -1.09170627
 Au      0.82319718      1.34546988      0.80243435
 Au      1.47810073      1.38310407     -1.84270831
 Au     -1.39495972      3.06870480      1.47032769
 Au     -1.22708323     -2.94154783     -0.52141965
 Au      0.49507903     -0.96063743     -0.88263698
  P      3.12840777     -4.92547400     -0.84175725
  C      4.31772132     -5.25261980     -2.17932941
  C      5.70106238     -5.14556617     -2.01734160
  C      6.54978485     -5.37617657     -3.08969173
  C      6.03108658     -5.71315535     -4.33247300
  C      4.65631782     -5.81936204     -4.50435492
  C      3.80458232     -5.58548579     -3.43720822
  H      6.69730011     -5.89421067     -5.16769845
  H      6.11337689     -4.88193237     -1.05014977
  H      2.73058134     -5.65964321     -3.57453215
  H      4.24747969     -6.08152070     -5.47327728
  C      2.66196581     -6.56450570     -0.21101464
  C      1.43306416     -6.68604351      0.44327160
  C      1.03106258     -7.90069100      0.97391635
  C      1.84955208     -9.01561733      0.84883944
  C      3.06700251     -8.91034520      0.18986596
  C      3.47418884     -7.69427741     -0.33768483
  H      4.42436656     -7.62059589     -0.85450261
  H      1.53531471     -9.96783210      1.25971915
  H      3.70450390     -9.78053975      0.08514188
  H      0.78719577     -5.81808312      0.53092067
  H      7.62164711     -5.29249894     -2.95248372
  C      4.12748567     -4.21090348      0.50511102
  C      4.29206246     -2.82232723      0.52271356
  C      4.97887011     -2.20199618      1.55301116
  C      5.50429909     -2.95969766      2.59141243
  C      5.34824853     -4.33874487      2.58645074
  C      4.66612167     -4.96224300      1.55154838
  H      6.03129216     -2.47362627      3.40415916
  H      5.75765657     -4.93466144      3.39390619
  H      4.54870052     -6.03983836      1.55932116
  H      0.07520941     -7.97708154      1.48032343
  H      5.09718806     -1.12419332      1.55065280
  H      3.86919180     -2.22595764     -0.27938739
  P     -3.35074237     -3.53379152      0.33081817
  C     -4.18970583     -2.21024746      1.26351953
  C     -5.42199957     -2.41080772      1.89313915
  C     -6.03571193     -1.38093726      2.58764677
  C     -5.42932424     -0.13434733      2.66935757
  C     -4.20670265      0.07530647      2.04881988
  C     -3.59133201     -0.95389178      1.35336939
  H     -5.90653951      0.66971467      3.21683243
  H     -5.90318577     -3.38058372      1.84105833
  H     -2.63661293     -0.77955024      0.86852641
  H     -3.73019150      1.04727941      2.10332168
  C     -3.21665605     -4.89124708      1.53422049
  C     -1.97709148     -5.09385078      2.14567601
  C     -1.80806710     -6.08618264      3.09855843
  C     -2.87982663     -6.89523757      3.45130382
  C     -4.11413840     -6.71205211      2.84160107
  C     -4.28464709     -5.71945014      1.88824517
  H     -5.24951703     -5.59480066      1.41015053
  H     -2.75199458     -7.67239713      4.19553448
  H     -4.95018763     -7.34834601      3.10754898
  H     -1.13795589     -4.46691329      1.86412069
  H     -6.99002401     -1.55301186      3.07142538
  C     -4.60527771     -4.09503785     -0.85593801
  C     -5.67039428     -3.28596688     -1.25974012
  C     -6.54483707     -3.71923574     -2.24526706
  C     -6.36274513     -4.95538292     -2.84864122
  C     -5.29875685     -5.76164711     -2.46485986
  C     -4.42183182     -5.33319136     -1.48147714
  H     -7.04794531     -5.29040829     -3.61825089
  H     -5.15046009     -6.72704932     -2.93449919
  H     -3.59033661     -5.96439877     -1.18595269
  H     -0.83891545     -6.22463559      3.56469579
  H     -7.37215324     -3.08466996     -2.54201590
  H     -5.82471547     -2.31839239     -0.79526803
  P     -1.05461596     -0.80679185      4.51832625
  C     -0.03702354     -2.26692541      4.11287453
  C      0.32229112     -3.21943469      5.07032040
  C      1.13676514     -4.28920829      4.73175004
  C      1.61474319     -4.41883354      3.43381179
  C      1.26295159     -3.47815644      2.47745639
  C      0.43912112     -2.41449139      2.81064625
  H      2.26345356     -5.24555409      3.16822779
  H     -0.03246885     -3.11895392      6.08972383
  H      0.16485108     -1.68576953      2.05550820
  H      1.64123297     -3.56433136      1.46596858
  C     -2.66298112     -1.51737696      4.98364908
  C     -3.59096935     -0.69492443      5.63149195
  C     -4.84487402     -1.17842471      5.96754097
  C     -5.19770089     -2.48353033      5.64736964
  C     -4.29235044     -3.30062514      4.98505587
  C     -3.03423170     -2.82144478      4.65265965
  H     -2.33386989     -3.46864941      4.13730751
  H     -6.17843039     -2.86105499      5.91165599
  H     -4.56391137     -4.31759652      4.72447452
  H     -3.32121244      0.32648253      5.87850088
  H      1.40714097     -5.01935581      5.48552517
  C     -0.33358127     -0.27086994      6.09958335
  C      0.66776260      0.70154041      6.04795868
  C      1.30537879      1.12477614      7.20236656
  C      0.94296616      0.58621078      8.42975674
  C     -0.06195799     -0.36942445      8.49612098
  C     -0.69777232     -0.79844972      7.34091172
  H      1.43931979      0.91574441      9.33488129
  H     -0.35320830     -0.78537053      9.45363410
  H     -1.48654826     -1.53929321      7.40497456
  H     -5.55040234     -0.53462253      6.47981795
  H      2.08493976      1.87588380      7.14286755
  H      0.94598002      1.12463362      5.08813882
  P     -2.07583136      5.05318112      0.31325295
  C     -3.67892025      4.82145373     -0.51579439
  C     -4.77965962      4.51860808      0.29412473
  C     -6.02257613      4.27466924     -0.26606576
  C     -6.18311333      4.30941706     -1.64594717
  C     -5.09514947      4.59073101     -2.45888220
  C     -3.85064775      4.84341559     -1.89988640
  H     -7.15448460      4.11418973     -2.08470807
  H     -4.65640886      4.48380737      1.37164720
  H     -3.00930056      5.06291355     -2.54674857
  H     -5.21189357      4.61478959     -3.53641018
  C     -0.96700997      5.66549512     -1.00002755
  C      0.20398751      4.96410319     -1.28709106
  C      1.06006686      5.39350848     -2.28952901
  C      0.75924804      6.53539943     -3.01859936
  C     -0.39533277      7.25247791     -2.73163800
  C     -1.25038454      6.82484820     -1.72854086
  H     -2.14393019      7.39681697     -1.50544433
  H      1.42864585      6.87125913     -3.80190150
  H     -0.62998449      8.15053204     -3.29104464
  H      0.44982694      4.07619948     -0.71438553
  H     -6.86857854      4.05437322      0.37475248
  C     -2.34479527      6.51860184      1.35697309
  C     -1.53467363      6.66823995      2.48534568
  C     -1.67343400      7.77200708      3.31129558
  C     -2.62829215      8.73806823      3.02333688
  C     -3.44498666      8.59420900      1.90986489
  C     -3.30755989      7.49239945      1.07977654
  H     -2.74002503      9.60024744      3.67016983
  H     -4.19566434      9.34321209      1.68596256
  H     -3.95689425      7.38341072      0.21854757
  H      1.96601642      4.83691881     -2.49941423
  H     -1.03898028      7.87543070      4.18419785
  H     -0.79295468      5.90942316      2.71404564
  P      2.82440324      1.94378277      2.01663416
  C      2.58020556      3.66702138      2.53056578
  C      2.05723846      3.99328644      3.78423545
  C      1.72762317      5.30475018      4.09064105
  C      1.89652071      6.30717418      3.14448272
  C      2.38947529      5.99146014      1.88481264
  C      2.72288582      4.68249757      1.57872117
  H      1.64163361      7.33211096      3.38674427
  H      1.90657535      3.21653325      4.52544049
  H      3.09874786      4.44129657      0.59029371
  H      2.51120577      6.76665568      1.13700677
  C      4.38353720      1.96470676      1.06426328
  C      4.55016211      1.03257631      0.03831574
  C      5.73434978      0.96912816     -0.68017775
  C      6.77285019      1.83893519     -0.37847880
  C      6.62118484      2.76808482      0.64258384
  C      5.43807732      2.83065588      1.36333884
  H      5.33176813      3.55851807      2.15964530
  H      7.69854699      1.79515261     -0.93995365
  H      7.43027215      3.44837249      0.88172772
  H      3.73791105      0.35516643     -0.20222968
  H      1.33444193      5.54388518      5.07199545
  C      3.34624770      1.02876887      3.50500498
  C      2.98952840     -0.31818174      3.59759473
  C      3.40270453     -1.08773515      4.67419538
  C      4.17612894     -0.51787386      5.67578400
  C      4.54248290      0.81926623      5.59091103
  C      4.13830761      1.58870267      4.51078647
  H      4.49562046     -1.11556461      6.52131284
  H      5.15232518      1.26509971      6.36800379
  H      4.44085363      2.62776705      4.44794708
  H      5.84198914      0.24230589     -1.47744497
  H      3.11909675     -2.13252620      4.73050260
  H      2.38349130     -0.76357062      2.81604374
  P      2.79339876      1.84864274     -3.78175178
  C      1.99596425      2.43416030     -5.30623039
  C      1.97830539      3.78777909     -5.65129199
  C      1.28018109      4.21891922     -6.76966424
  C      0.57701361      3.30957098     -7.54823771
  C      0.57766193      1.96322041     -7.20793778
  C      1.27949560      1.52844740     -6.09541429
  H      0.03070679      3.64917593     -8.42017196
  H      2.52330699      4.50629228     -5.04964806
  H      1.28903388      0.47376372     -5.84282760
  H      0.03213237      1.24804303     -7.81265792
  C      3.65973173      0.32673859     -4.28104833
  C      3.79800163     -0.69104836     -3.33471980
  C      4.47531641     -1.86016124     -3.63912266
  C      5.02090660     -2.03527450     -4.90322979
  C      4.88339333     -1.03598141     -5.85730265
  C      4.21043513      0.13721819     -5.55151514
  H      4.10606453      0.90700257     -6.30751824
  H      5.54726241     -2.95176643     -5.14422248
  H      5.30312509     -1.16964859     -6.84756116
  H      3.36134975     -0.56594055     -2.35009232
  H      1.28699423      5.27024361     -7.03320481
  C      4.13461934      3.03917290     -3.47565076
  C      4.23738806      3.61516959     -2.20838860
  C      5.23673030      4.53308553     -1.92511001
  C      6.15371556      4.88190672     -2.90627197
  C      6.06712619      4.30985791     -4.16921622
  C      5.06536119      3.39647592     -4.45569286
  H      6.93679662      5.59820719     -2.68745785
  H      6.78347668      4.57849126     -4.93682081
  H      5.00418556      2.95826792     -5.44537209
  H      4.57296915     -2.63578191     -2.88792974
  H      5.29998500      4.97154041     -0.93571376
  H      3.53003924      3.32931596     -1.43700583
  P     -2.87500953      0.96240991     -2.52307873
  C     -4.64420594      0.68643379     -2.21243546
  C     -5.49669398      0.05974263     -3.12758500
  C     -6.83296080     -0.13751916     -2.81628189
  C     -7.33362596      0.26883556     -1.58588143
  C     -6.49440733      0.88432181     -0.66773799
  C     -5.16136368      1.09675739     -0.98226258
  H     -8.37682756      0.10412892     -1.34363034
  H     -5.11257829     -0.28417937     -4.08095222
  H     -4.50840073      1.58358695     -0.26554212
  H     -6.87647917      1.19874878      0.29672583
  C     -2.31457357     -0.55928858     -3.35129975
  C     -1.15053468     -0.51840714     -4.12400365
  C     -0.58519895     -1.68369752     -4.61643303
  C     -1.17016034     -2.91310698     -4.34257012
  C     -2.32539727     -2.96849970     -3.57399470
  C     -2.88862225     -1.80151339     -3.07405954
  H     -3.78535116     -1.86180916     -2.46846938
  H     -0.72647973     -3.82463572     -4.72498763
  H     -2.79580969     -3.92180194     -3.36202066
  H     -0.68516497      0.43782295     -4.33899216
  H     -7.48592381     -0.61506399     -3.53751041
  C     -2.74676011      2.23300207     -3.82134216
  C     -1.62420947      3.06507805     -3.80128010
  C     -1.46316956      4.06549522     -4.74602933
  C     -2.42417473      4.24988890     -5.73033642
  C     -3.54529533      3.43154911     -5.76074682
  C     -3.70924448      2.43205914     -4.81354642
  H     -2.30212349      5.03395161     -6.46816654
  H     -4.30073840      3.57400214     -6.52454575
  H     -4.59572982      1.81011749     -4.84415950
  H      0.31914521     -1.63286040     -5.21218239
  H     -0.58785965      4.70385262     -4.70842871
  H     -0.87629028      2.93525162     -3.02586679
