246
Energy =   -372.44862264 au
 Au      1.89595815      0.42328184     -2.12996725
 Au      0.03083114      2.18948561     -1.58243758
 Au     -0.89523011     -0.65894209     -2.19853510
 Au      2.26196988      1.68578978      0.43858331
 Au      0.17821157      0.05098474      0.13688580
 Au      0.79979935      0.64877923      2.68711478
 Au     -2.24363688     -1.08757115      0.17453432
 Au     -0.06105384     -1.86979386      1.92976079
  P      3.68638742     -0.83257315     -3.06790507
  C      4.66795360     -1.74041038     -1.83270351
  C      5.46704835     -2.84224011     -2.15111428
  C      6.22153984     -3.46905176     -1.17116220
  C      6.19176128     -3.00859764      0.13847503
  C      5.39422299     -1.92092769      0.46920207
  C      4.63772005     -1.29627430     -0.50873059
  H      6.79034782     -3.49469369      0.89986272
  H      5.49466171     -3.21548008     -3.16833630
  H      4.00898491     -0.45245167     -0.24263688
  H      5.36077324     -1.55786378      1.49024205
  C      4.88280181      0.26733935     -3.88556040
  C      4.48924854      1.57361984     -4.18304605
  C      5.35091528      2.44237154     -4.83386726
  C      6.62216761      2.01668402     -5.19327994
  C      7.02971753      0.72281510     -4.89324211
  C      6.16838139     -0.14770650     -4.24440477
  H      6.49555864     -1.15553250     -4.01548985
  H      7.29690956      2.69311493     -5.70450739
  H      8.02309255      0.38865841     -5.16902619
  H      3.49597647      1.90721545     -3.90050709
  H      6.83822642     -4.32088997     -1.43321141
  C      3.28855699     -2.06428208     -4.34466806
  C      2.81258016     -3.32574841     -3.97419220
  C      2.41986437     -4.23975849     -4.93892783
  C      2.47494832     -3.90261582     -6.28451513
  C      2.93306710     -2.64837618     -6.66249651
  C      3.33517931     -1.73398931     -5.70139644
  H      2.16144954     -4.61699949     -7.03653120
  H      2.97617106     -2.37756465     -7.71113045
  H      3.69199317     -0.75672176     -6.00644935
  H      5.02973986      3.45284342     -5.05866867
  H      2.06474589     -5.21857818     -4.63767632
  H      2.75664146     -3.59301464     -2.92431934
  P     -1.71879084      3.77391503     -1.95485018
  C     -1.19926733      5.48447143     -2.27933811
  C     -1.98099336      6.38501447     -3.00833157
  C     -1.53964312      7.68220690     -3.21569047
  C     -0.31873968      8.09697914     -2.69935668
  C      0.46704817      7.20883044     -1.97766271
  C      0.03097955      5.90932275     -1.77255243
  H      0.02249094      9.11222660     -2.86402047
  H     -2.93380710      6.06528310     -3.41550187
  H      0.64871154      5.20999894     -1.21758460
  H      1.42330829      7.52630527     -1.57755031
  C     -3.07357171      3.92893086     -0.74779662
  C     -3.83339994      2.79181069     -0.45346703
  C     -4.88266676      2.86032173      0.44789525
  C     -5.17018773      4.05509680      1.09493109
  C     -4.40868491      5.18308840      0.82730805
  C     -3.36885091      5.12334580     -0.08925217
  H     -2.79092149      6.01522630     -0.30200637
  H     -5.98830934      4.10418199      1.80379334
  H     -4.63025941      6.11959706      1.32584365
  H     -3.60840175      1.85264591     -0.94913052
  H     -2.15165841      8.37312167     -3.78370917
  C     -2.57469553      3.24608994     -3.47320795
  C     -1.79503821      2.67724254     -4.48425687
  C     -2.37262827      2.22960089     -5.66081545
  C     -3.74555638      2.33548269     -5.84231651
  C     -4.53260425      2.89206972     -4.84354255
  C     -3.95392826      3.34775124     -3.66801389
  H     -4.20074094      1.98613770     -6.76160994
  H     -5.60422526      2.97879668     -4.98140604
  H     -4.58062344      3.78051600     -2.89702414
  H     -5.48062589      1.97875407      0.64664506
  H     -1.75031269      1.79513019     -6.43495599
  H     -0.72287750      2.58744608     -4.34236572
  P     -0.25255039     -4.12230861      2.61403802
  C      1.38252750     -4.87557186      2.85489837
  C      1.70175444     -5.74025251      3.90263162
  C      2.98530865     -6.25406206      4.01750998
  C      3.96192750     -5.91176967      3.09283158
  C      3.65572139     -5.04681597      2.04960064
  C      2.37732573     -4.52802652      1.93483616
  H      4.96345608     -6.31496668      3.18638803
  H      0.94556767     -6.01077231      4.63072911
  H      2.14008727     -3.84400593      1.12550436
  H      4.41594175     -4.77066374      1.32712395
  C     -1.02451245     -5.18396203      1.34781515
  C     -2.08273263     -4.66338336      0.60163379
  C     -2.71725531     -5.42346404     -0.36607291
  C     -2.29685995     -6.72456603     -0.60707347
  C     -1.23982472     -7.25367647      0.12133168
  C     -0.60537532     -6.49176540      1.09150304
  H      0.22192750     -6.91391342      1.65035942
  H     -2.78813898     -7.32270934     -1.36545743
  H     -0.90557509     -8.26749375     -0.06628369
  H     -2.41293376     -3.64719193      0.78609212
  H      3.22261981     -6.92516902      4.83480557
  C     -1.20044206     -4.47477921      4.12342357
  C     -1.33867270     -3.45380308      5.06692646
  C     -2.04860050     -3.66832255      6.23763880
  C     -2.63998790     -4.90156255      6.47535340
  C     -2.51731094     -5.92062487      5.53971255
  C     -1.80222398     -5.71180140      4.37006025
  H     -3.19831726     -5.06856423      7.38891869
  H     -2.97716185     -6.88482974      5.72253545
  H     -1.71401314     -6.51062317      3.64234886
  H     -3.53936016     -4.99860323     -0.93152474
  H     -2.14059901     -2.87025209      6.96548625
  H     -0.88422622     -2.48627376      4.87805841
  P      4.24414934      2.84500183      1.10232634
  C      3.83218364      4.42934354      1.88936010
  C      4.28422165      4.81805793      3.15048758
  C      3.86607731      6.01917932      3.70401438
  C      2.99056192      6.84419495      3.01266262
  C      2.52619241      6.46304954      1.76042430
  C      2.93661014      5.26116323      1.20742794
  H      2.66592900      7.78082702      3.45023062
  H      4.96110113      4.17951741      3.70664817
  H      2.55743792      4.95442837      0.23763111
  H      1.83824403      7.10015312      1.21618295
  C      5.47834273      3.22966298     -0.17913732
  C      6.19994653      2.15960114     -0.72074626
  C      7.12039134      2.37280997     -1.73224524
  C      7.32042802      3.65359188     -2.23202281
  C      6.59605889      4.71791707     -1.71490964
  C      5.67897965      4.51029600     -0.69485180
  H      5.12478944      5.35065812     -0.29258033
  H      8.03961820      3.81946071     -3.02544827
  H      6.74752993      5.71843574     -2.10320428
  H      6.04321744      1.15632402     -0.33734552
  H      4.22586709      6.30921835      4.68438099
  C      5.22452774      1.92001710      2.32324468
  C      4.69600923      0.75657323      2.88388966
  C      5.42148027      0.01840260      3.80738407
  C      6.69003156      0.43807329      4.18488321
  C      7.23114804      1.59026053      3.62923539
  C      6.50897719      2.32463151      2.70188098
  H      7.25905538     -0.13639707      4.90625581
  H      8.22359063      1.91694489      3.91700144
  H      6.94496434      3.21385269      2.26066156
  H      7.68010819      1.53659628     -2.13565405
  H      4.99506644     -0.88338977      4.23167441
  H      3.70523901      0.42631759      2.59036492
  P     -1.46473476     -1.85406483     -4.19679224
  C     -0.68865769     -1.37412475     -5.77365480
  C     -0.96729919     -1.99521798     -6.99437700
  C     -0.34914415     -1.56366873     -8.15735268
  C      0.54877030     -0.50452864     -8.12317264
  C      0.83245556      0.12203966     -6.91725846
  C      0.21958101     -0.31346429     -5.75269393
  H      1.02463814     -0.16634034     -9.03599874
  H     -1.67367361     -2.81596039     -7.03682199
  H      0.44529218      0.17558678     -4.81024771
  H      1.53099384      0.95022399     -6.88184351
  C     -3.24492306     -1.96897414     -4.54342470
  C     -4.04108296     -2.74252046     -3.69093166
  C     -5.41661907     -2.77596562     -3.84857856
  C     -6.02115024     -2.02622239     -4.84993346
  C     -5.24280500     -1.24034197     -5.68888822
  C     -3.86466685     -1.20655325     -5.53500097
  H     -3.26543315     -0.58731005     -6.19282812
  H     -7.09742374     -2.05189135     -4.97261430
  H     -5.70978557     -0.64982510     -6.46873380
  H     -3.57484056     -3.32611213     -2.90346480
  H     -0.57364267     -2.05434016     -9.09726942
  C     -1.00828198     -3.59733331     -3.91471937
  C     -0.20423486     -3.90050718     -2.81405075
  C      0.14358842     -5.20992665     -2.52245340
  C     -0.30461518     -6.24155657     -3.33647779
  C     -1.10702189     -5.95570740     -4.43358407
  C     -1.46195923     -4.64657509     -4.71876178
  H     -0.03501740     -7.26674843     -3.11182495
  H     -1.46419792     -6.75841545     -5.06814476
  H     -2.10509663     -4.44065048     -5.56648685
  H     -6.01959786     -3.38519119     -3.18467242
  H      0.76009151     -5.42465146     -1.65672299
  H      0.14750294     -3.09745064     -2.17582059
  P     -4.48750429     -1.31728918      0.94872959
  C     -5.69733545     -0.62492484     -0.22395456
  C     -7.02894454     -0.37584663      0.12125126
  C     -7.89082655      0.21083206     -0.79185243
  C     -7.43717993      0.56496393     -2.05624022
  C     -6.11831622      0.31997477     -2.41122421
  C     -5.25726153     -0.27478269     -1.50227507
  H     -8.11203968      1.03153060     -2.76418499
  H     -7.38825428     -0.63845886      1.10980867
  H     -4.22908995     -0.47403242     -1.78532142
  H     -5.75630495      0.59259932     -3.39645004
  C     -4.72420844     -0.30407460      2.44271340
  C     -3.88866918      0.80423474      2.60828698
  C     -4.04395416      1.65578521      3.69005680
  C     -5.02564390      1.39839791      4.63801317
  C     -5.84752512      0.28828495      4.49700248
  C     -5.70374130     -0.55594785      3.40576600
  H     -6.35319328     -1.41796361      3.30496382
  H     -5.14509438      2.05942718      5.48836760
  H     -6.61006373      0.08026897      5.23856780
  H     -3.11315327      1.00092311      1.87524251
  H     -8.92120024      0.39848267     -0.51303295
  C     -5.11037403     -2.96206210      1.39394187
  C     -5.91900100     -3.70156639      0.52787451
  C     -6.26104574     -5.01023111      0.83430824
  C     -5.79396530     -5.59956171      2.00113531
  C     -4.97983802     -4.87679287      2.86364281
  C     -4.63179671     -3.57089080      2.56018233
  H     -6.06120203     -6.62270115      2.23759298
  H     -4.60751490     -5.33425713      3.77334479
  H     -3.98453974     -3.01448060      3.23082514
  H     -3.39557857      2.51873135      3.79469330
  H     -6.89423788     -5.57177129      0.15720604
  H     -6.28576191     -3.24760799     -0.38627274
  P      0.52417507      2.09612633      4.58228118
  C     -0.56284830      1.41286764      5.87145548
  C     -0.45677288      1.72086287      7.22900024
  C     -1.33633284      1.16117463      8.14404896
  C     -2.33340345      0.29455338      7.71806190
  C     -2.44304333     -0.02490458      6.37058240
  C     -1.55681367      0.52138266      5.45698200
  H     -3.02355952     -0.13460551      8.43487807
  H      0.31600661      2.39993985      7.57078049
  H     -1.63769931      0.26344547      4.40561545
  H     -3.22253767     -0.69687375      6.02927699
  C     -0.40394916      3.54301255      3.97416784
  C     -0.05277004      4.06208908      2.72568361
  C     -0.71636043      5.15766511      2.19956062
  C     -1.74655534      5.75286526      2.91541230
  C     -2.11421359      5.24051528      4.15171670
  C     -1.44998585      4.14250226      4.67938215
  H     -1.74183171      3.75251425      5.64775067
  H     -2.26297049      6.61431960      2.50883860
  H     -2.92058949      5.69959861      4.71183115
  H      0.75403197      3.60235835      2.16405531
  H     -1.24399742      1.40735349      9.19546339
  C      1.92777821      2.84636135      5.46775495
  C      3.11181006      2.11134115      5.55909713
  C      4.22251579      2.63716710      6.19994365
  C      4.16181687      3.90442515      6.76419360
  C      2.98873393      4.64356410      6.68108340
  C      1.87917625      4.12365362      6.03214001
  H      5.02840527      4.31701140      7.26717071
  H      2.93683080      5.63169889      7.12338694
  H      0.97232750      4.71340122      5.96032484
  H     -0.43033941      5.54661287      1.22839579
  H      5.13624033      2.05642631      6.25728126
  H      3.15966649      1.12106194      5.11910170
