246
Energy =   -372.42906211 au
 Au     -1.31635622     -0.15682899     -1.24094456
 Au      0.50414527     -0.50561689     -3.13392475
 Au     -0.25482851      2.67411752     -0.28831466
 Au      2.09890953      2.03856869      0.56916403
 Au      0.06471003      0.37529311      1.28687703
 Au     -1.38950434     -0.94137110      3.01608839
 Au     -0.95334350     -2.12547609      0.62499586
 Au     -1.00459074      1.73799716     -3.01863485
  P     -2.88569371     -1.58843388      4.73643479
  C     -2.72083771     -3.24107477      5.48279392
  C     -2.55807215     -3.45108660      6.85289691
  C     -2.42096771     -4.73824617      7.35280294
  C     -2.44280891     -5.82931279      6.49507067
  C     -2.59701428     -5.63091362      5.12842508
  C     -2.72821551     -4.34670326      4.62679337
  H     -2.33903989     -6.83321790      6.88928385
  H     -2.54202159     -2.60700719      7.53247175
  H     -2.84157832     -4.19304351      3.55891189
  H     -2.61399501     -6.47828469      4.45241029
  C     -4.57022428     -1.61175321      4.05281617
  C     -4.82078223     -0.90656669      2.87364086
  C     -6.08061158     -0.90748522      2.29772342
  C     -7.11207769     -1.62156506      2.89213190
  C     -6.87602230     -2.33319231      4.06147716
  C     -5.61564264     -2.33111055      4.63967161
  H     -5.43820242     -2.89618379      5.54765665
  H     -8.09806533     -1.62759395      2.44258123
  H     -7.67834460     -2.89407794      4.52647102
  H     -4.01410333     -0.35727799      2.40056940
  H     -2.30065922     -4.88796985      8.41945487
  C     -2.93194267     -0.45267962      6.15450712
  C     -1.70226147     -0.04877434      6.68725974
  C     -1.65265710      0.84427334      7.74474842
  C     -2.83001688      1.35465896      8.27750347
  C     -4.05410882      0.96488805      7.75208670
  C     -4.10886259      0.06670528      6.69658451
  H     -2.79190940      2.05769713      9.10116463
  H     -4.97390461      1.36249097      8.16507592
  H     -5.06915009     -0.22966881      6.29038870
  H     -6.25400642     -0.35325607      1.38175185
  H     -0.69407637      1.14546545      8.15187771
  H     -0.78309328     -0.43948143      6.26193195
  P     -2.39381179      3.70860359      0.11027276
  C     -4.01681835      2.94695493     -0.24345076
  C     -5.09516776      3.02974502      0.64340862
  C     -6.29618913      2.40167505      0.35077606
  C     -6.44275001      1.68263803     -0.82815853
  C     -5.38237501      1.59906687     -1.72021766
  C     -4.18315356      2.22706263     -1.42683101
  H     -7.38194916      1.19086626     -1.05242766
  H     -4.99197749      3.57967557      1.57162129
  H     -3.35782279      2.15707194     -2.12865579
  H     -5.48895594      1.04361265     -2.64508736
  C     -2.57940171      5.48479367     -0.23911042
  C     -1.42346000      6.20198696     -0.55858156
  C     -1.47894656      7.56882795     -0.77937322
  C     -2.69348583      8.23564227     -0.69024489
  C     -3.85101327      7.52984894     -0.38887540
  C     -3.79821934      6.16262463     -0.16567352
  H     -4.70721340      5.62051695      0.06873864
  H     -2.73893673      9.30474507     -0.86083837
  H     -4.80125594      8.04713604     -0.32533895
  H     -0.47576934      5.67801849     -0.63257998
  H     -7.12254224      2.47539674      1.04827040
  C     -2.32672730      3.65728103      1.93130831
  C     -2.67465307      2.47373689      2.58883054
  C     -2.52708179      2.35786855      3.96066902
  C     -2.00277962      3.41079031      4.69908912
  C     -1.63062782      4.58193174      4.05368689
  C     -1.78969728      4.70506351      2.68087718
  H     -1.89135574      3.31777230      5.77333442
  H     -1.21709542      5.40738650      4.62165064
  H     -1.49801429      5.62604689      2.18881278
  H     -0.57402518      8.11287668     -1.02421461
  H     -2.82788421      1.44183817      4.45459645
  H     -3.07750260      1.64242512      2.02062178
  P      3.95667581      2.31542087      2.09303170
  C      4.31718765      4.09935470      2.14918228
  C      5.07860106      4.67750208      3.16960122
  C      5.31119118      6.04325470      3.18209863
  C      4.78763693      6.85155287      2.18089231
  C      4.02849333      6.28941933      1.16401778
  C      3.79555979      4.92316298      1.15090895
  H      4.96993388      7.91972045      2.19502088
  H      5.48673621      4.05328307      3.95692119
  H      3.20146855      4.48346325      0.35593877
  H      3.61434700      6.91475289      0.38111424
  C      5.60675114      1.54400087      2.05448900
  C      5.76395738      0.21847909      2.47166102
  C      7.00365730     -0.39871805      2.40102645
  C      8.09677327      0.28569357      1.88584656
  C      7.94597298      1.59284734      1.44412713
  C      6.71136334      2.21892758      1.52757623
  H      6.60741683      3.24588434      1.19570509
  H      9.06419849     -0.19930177      1.83034531
  H      8.79480645      2.13185485      1.03944008
  H      4.91151937     -0.32849969      2.86094789
  H      5.90310835      6.48029432      3.97786719
  C      3.34618839      2.00350134      3.78508884
  C      1.97690030      2.16777000      4.01336298
  C      1.43243843      1.96524648      5.27029430
  C      2.25260714      1.59668609      6.32934268
  C      3.61637994      1.43847066      6.11996137
  C      4.16072243      1.64061924      4.86003770
  H      1.83090221      1.44185392      7.31578282
  H      4.26266945      1.15786023      6.94358231
  H      5.22739551      1.51427668      4.71531417
  H      7.11722767     -1.41812774      2.75215924
  H      0.36651281      2.09566267      5.42220153
  H      1.33075406      2.46333462      3.19455093
  P     -0.61699782      3.58336244     -4.44242225
  C      1.14426043      4.01299902     -4.34642059
  C      2.06882317      3.53872247     -5.27919719
  C      3.42361444      3.78385545     -5.11434037
  C      3.87514206      4.50098032     -4.01522479
  C      2.96616122      4.96283166     -3.07091185
  C      1.61292717      4.71156662     -3.22890001
  H      4.93377552      4.69533549     -3.88994226
  H      1.72539309      2.97778721     -6.14115945
  H      0.90834997      5.06404386     -2.48260552
  H      3.31297633      5.52059774     -2.20831412
  C     -1.50544191      5.14820191     -4.17567828
  C     -2.83249832      5.07743066     -3.74436483
  C     -3.58664413      6.22963470     -3.59309393
  C     -3.02163254      7.46861759     -3.86408495
  C     -1.70019128      7.55101771     -4.28170340
  C     -0.94420620      6.39978539     -4.44013719
  H      0.08551609      6.47418635     -4.77041060
  H     -3.61019397      8.37059565     -3.74502149
  H     -1.25504757      8.51704321     -4.48970119
  H     -3.27443326      4.11000297     -3.52936141
  H      4.12809762      3.40995443     -5.84869167
  C     -0.92967422      3.23318463     -6.19842562
  C     -1.58274735      2.04948266     -6.54373605
  C     -1.87179169      1.76263898     -7.86949022
  C     -1.50926264      2.65810533     -8.86690422
  C     -0.85973395      3.84039867     -8.53422680
  C     -0.57468748      4.13099788     -7.21008046
  H     -1.73622367      2.43678586     -9.90305527
  H     -0.57823826      4.54213250     -9.31066147
  H     -0.07654706      5.06015095     -6.95638307
  H     -4.61534257      6.16053454     -3.25872805
  H     -2.38390197      0.84130546     -8.12230448
  H     -1.86569030      1.35012348     -5.76369921
  P      2.58924320     -0.88713458     -4.16872364
  C      3.85856008      0.03471260     -3.24461281
  C      5.18905925     -0.37448693     -3.12309970
  C      6.09289104      0.38128196     -2.38973559
  C      5.68761619      1.55873031     -1.77774742
  C      4.37200054      1.98416529     -1.90559299
  C      3.46560536      1.22683881     -2.62951726
  H      6.39465182      2.14471924     -1.20263174
  H      5.51905101     -1.29230091     -3.59545883
  H      2.43935160      1.56375959     -2.72527790
  H      4.05056859      2.91283501     -1.44944452
  C      2.66998890     -0.12288338     -5.81618708
  C      1.48855113      0.07724579     -6.53238401
  C      1.51556428      0.67777941     -7.78194030
  C      2.72157348      1.09775573     -8.32570486
  C      3.90260867      0.90819165     -7.61956090
  C      3.87997841      0.29996211     -6.37471179
  H      4.80576565      0.15577134     -5.82905764
  H      2.74103403      1.57405595     -9.29880843
  H      4.84636746      1.23438249     -8.04075462
  H      0.54306997     -0.23804187     -6.10327895
  H      7.12022157      0.04797007     -2.29905290
  C      3.27841909     -2.55483047     -4.38720593
  C      3.71537704     -3.26714782     -3.26528645
  C      4.22272128     -4.54986353     -3.39950878
  C      4.26902182     -5.15293142     -4.65049521
  C      3.80760086     -4.46668968     -5.76490076
  C      3.31731379     -3.17573188     -5.63767855
  H      4.66433558     -6.15643245     -4.75464454
  H      3.83657965     -4.93474601     -6.74197426
  H      2.97095858     -2.64294862     -6.51593979
  H      0.59147120      0.82146771     -8.32967729
  H      4.59203438     -5.07536526     -2.52601572
  H      3.66792836     -2.80951709     -2.28323783
  P      0.78965870     -3.64128015      1.79314778
  C      0.96385047     -3.39248544      3.59801750
  C      0.59952653     -4.34661053      4.54784248
  C      0.68455377     -4.05940644      5.90271020
  C      1.11995601     -2.81378698      6.33051760
  C      1.48681215     -1.85479580      5.39475637
  C      1.40986119     -2.14056042      4.04122108
  H      1.18083299     -2.59152680      7.38927049
  H      0.25205480     -5.32328297      4.23134325
  H      1.72384361     -1.39495327      3.31869182
  H      1.84252432     -0.88333234      5.71845700
  C      2.45561736     -3.12828508      1.25285960
  C      2.56034740     -2.13430864      0.27971106
  C      3.79663929     -1.63338129     -0.09597754
  C      4.95497249     -2.15500555      0.46257651
  C      4.86688203     -3.14900518      1.42880027
  C      3.62811349     -3.61578674      1.83994592
  H      3.56919039     -4.35397856      2.63162783
  H      5.92231203     -1.77529524      0.15534148
  H      5.76772851     -3.55085864      1.87805276
  H      1.66161551     -1.73888442     -0.18027465
  H      0.40372128     -4.81516647      6.62712139
  C      0.70969642     -5.45499758      1.61206197
  C     -0.53627747     -6.04677728      1.85104277
  C     -0.70529813     -7.41655358      1.73362003
  C      0.36574740     -8.21650898      1.35720145
  C      1.59726959     -7.63714828      1.08585194
  C      1.77017114     -6.26612577      1.20672416
  H      0.23691042     -9.28824021      1.26360306
  H      2.43144305     -8.25519591      0.77443943
  H      2.73455822     -5.82897844      0.97633451
  H      3.85211812     -0.82836903     -0.81720686
  H     -1.67557948     -7.85869496      1.92847583
  H     -1.38064633     -5.42053220      2.12141163
  P     -1.97709408     -3.52723218     -1.05973348
  C     -0.98046656     -4.99289103     -1.46924885
  C     -1.50437991     -6.28264615     -1.56356758
  C     -0.68690495     -7.34705158     -1.91246976
  C      0.66020065     -7.13868701     -2.17224427
  C      1.19492444     -5.86200720     -2.06425829
  C      0.38412404     -4.79716200     -1.70733199
  H      1.29597157     -7.97142295     -2.44868153
  H     -2.55466513     -6.45807332     -1.36214873
  H      0.81088536     -3.80396322     -1.60402271
  H      2.24846891     -5.69478172     -2.25452981
  C     -2.33887046     -2.81216289     -2.69967741
  C     -3.45571418     -1.98166306     -2.84114654
  C     -3.70204444     -1.32617913     -4.03762347
  C     -2.82842987     -1.47215710     -5.10668824
  C     -1.70687373     -2.27922659     -4.97314863
  C     -1.46226623     -2.94542269     -3.77902604
  H     -0.59314651     -3.58739019     -3.69849532
  H     -3.02302030     -0.96141954     -6.04226861
  H     -1.02209572     -2.40370366     -5.80390938
  H     -4.14022118     -1.85712233     -2.00951787
  H     -1.10648511     -8.34384062     -1.98215725
  C     -3.59232933     -4.13921137     -0.50334452
  C     -3.94030592     -3.97302982      0.83826861
  C     -5.16068265     -4.42169625      1.31663522
  C     -6.05628429     -5.03838378      0.45401039
  C     -5.72836522     -5.19945631     -0.88597322
  C     -4.50697216     -4.75350432     -1.36583379
  H     -7.01283921     -5.38785702      0.82429703
  H     -6.42918078     -5.67368393     -1.56307405
  H     -4.26400372     -4.87097644     -2.41582249
  H     -4.57922211     -0.69672881     -4.13392309
  H     -5.41470008     -4.28401710      2.36162021
  H     -3.24563313     -3.47626179      1.50737424
