246
Energy =   -372.45655745 au
 Au      0.17025757      3.07075815      0.96329365
 Au     -1.23373516     -0.92625657      2.78105448
 Au      1.81040021      0.60719100      0.13548648
 Au     -0.30690905      1.38199114     -1.29798282
 Au      0.98068706     -0.92799049     -2.11521357
 Au     -1.95210615      1.64201787      1.21826922
 Au     -0.48291495     -0.94446477      0.21473768
 Au     -1.23616346     -3.17435507      1.40934900
  P      3.88064688     -0.03966893      1.12965127
  C      5.04396227      1.11619284      1.92059827
  C      5.70645959      0.83370705      3.11731801
  C      6.58983894      1.75261992      3.66354052
  C      6.83120566      2.95885934      3.02086330
  C      6.17485113      3.25124521      1.83317124
  C      5.27700058      2.34461192      1.29359380
  H      7.52694219      3.67232073      3.44629621
  H      5.53052809     -0.10654943      3.62666052
  H      4.74928159      2.59122942      0.37854135
  H      6.35595163      4.19240456      1.32750797
  C      4.86287961     -0.82635627     -0.18750286
  C      4.44086485     -2.07062688     -0.66821495
  C      5.11364859     -2.69039531     -1.70775574
  C      6.20465859     -2.06717606     -2.29959929
  C      6.61407589     -0.82040777     -1.85023637
  C      5.94958398     -0.20266676     -0.80084213
  H      6.28781947      0.76637704     -0.45232521
  H      6.73146148     -2.55263871     -3.11239689
  H      7.45981091     -0.32601690     -2.31394105
  H      3.58658731     -2.55927590     -0.21088475
  H      7.09638733      1.52007014      4.59301888
  C      3.64697874     -1.40302930      2.31167044
  C      2.40751314     -1.54868938      2.93392024
  C      2.17402316     -2.57854300      3.83054953
  C      3.18343928     -3.48598818      4.11818190
  C      4.42257304     -3.35722758      3.50308951
  C      4.65595004     -2.32635022      2.60551499
  H      3.00502273     -4.29502570      4.81660547
  H      5.21356397     -4.06439323      3.72392166
  H      5.62227808     -2.24253475      2.12142647
  H      4.78531454     -3.66264217     -2.05751380
  H      1.20198399     -2.66942759      4.30273986
  H      1.61595951     -0.84285663      2.71122181
  P      1.76775721      4.80689981      0.44059879
  C      0.89405975      6.37461436      0.13906280
  C      0.79029709      7.37056397      1.11174733
  C      0.04884038      8.51669609      0.86636221
  C     -0.60118829      8.68253918     -0.34828069
  C     -0.51617589      7.69167185     -1.31799757
  C      0.21579120      6.54176380     -1.07296919
  H     -1.17513930      9.58133828     -0.54032454
  H      1.29707862      7.25252992      2.06274860
  H      0.26937094      5.76491402     -1.82921637
  H     -1.02560975      7.81255035     -2.26718801
  C      2.81206798      4.64317076     -1.05054893
  C      3.15600628      3.36584071     -1.49199672
  C      3.96355833      3.17815005     -2.60070599
  C      4.43493108      4.27911577     -3.30265487
  C      4.09045568      5.55849856     -2.88724939
  C      3.28876522      5.74273823     -1.77067259
  H      3.02280649      6.74738632     -1.46323199
  H      5.06555856      4.13982585     -4.17290482
  H      4.45028873      6.42145223     -3.43537327
  H      2.77637930      2.49950969     -0.95938410
  H     -0.01802484      9.28453315      1.62837283
  C      2.93111558      5.21866418      1.77918976
  C      2.61423524      4.78031372      3.06714539
  C      3.44427931      5.07099980      4.13875125
  C      4.60315311      5.80756765      3.93643488
  C      4.92608429      6.25355255      2.66128915
  C      4.09948729      5.95977062      1.58739285
  H      5.25433322      6.03577132      4.77195151
  H      5.82676736      6.83474817      2.50113162
  H      4.36363542      6.30888096      0.59568239
  H      4.22146863      2.17277834     -2.91375483
  H      3.18484080      4.72190467      5.13165973
  H      1.70402158      4.21088176      3.22502022
  P     -1.11533462      0.14856808      4.90090036
  C      0.60758576      0.63518119      5.24194878
  C      1.31849676      1.27299843      4.22096005
  C      2.63994762      1.64636600      4.40173318
  C      3.28012493      1.37650126      5.60349620
  C      2.59075851      0.72934094      6.61906099
  C      1.26532160      0.36047719      6.44164492
  H      4.31565795      1.66471616      5.74235123
  H      0.83346477      1.46952425      3.27045298
  H      0.74109913     -0.14681363      7.24307899
  H      3.08657564      0.50861758      7.55716714
  C     -1.57806911     -0.93251686      6.28263175
  C     -1.67665718     -2.30478007      6.04118476
  C     -2.01679935     -3.18128942      7.05931272
  C     -2.26421413     -2.69655451      8.33632616
  C     -2.16826717     -1.33471575      8.59062178
  C     -1.82801526     -0.45592370      7.57421576
  H     -1.76125095      0.60631630      7.78039349
  H     -2.53352716     -3.37951144      9.13334488
  H     -2.36007676     -0.95372402      9.58692486
  H     -1.48483883     -2.68398496      5.04265176
  H      3.17278372      2.14038173      3.59765475
  C     -2.06179650      1.68029883      5.17787911
  C     -1.53681102      2.93047472      4.84192042
  C     -2.29330089      4.08038434      5.00612011
  C     -3.58464406      3.99983698      5.50802128
  C     -4.12508754      2.76073864      5.82487880
  C     -3.37600650      1.60837941      5.65056642
  H     -4.16999974      4.90044468      5.65025800
  H     -5.13704893      2.69031439      6.20659543
  H     -3.80867473      0.64566694      5.89943129
  H     -2.09091807     -4.24306900      6.85397416
  H     -1.86707374      5.04320339      4.74839663
  H     -0.52302765      3.01139315      4.46639186
  P     -1.44870066      2.37256825     -3.14207870
  C     -2.27673106      3.99003376     -2.97859256
  C     -2.70822500      4.72677742     -4.08544072
  C     -3.36429515      5.93485056     -3.91057887
  C     -3.59701887      6.42798914     -2.63317869
  C     -3.15418252      5.71598352     -1.52700039
  C     -2.49420003      4.50951674     -1.70087553
  H     -4.11548942      7.37015377     -2.50077142
  H     -2.52230192      4.35851654     -5.08766134
  H     -2.13113504      3.96783364     -0.83397973
  H     -3.31547630      6.10195105     -0.52710196
  C     -2.71500564      1.23664896     -3.79799395
  C     -3.04715020      0.11492705     -3.03467443
  C     -4.01178693     -0.78184301     -3.46482201
  C     -4.66445571     -0.56913112     -4.67168591
  C     -4.34127600      0.53979138     -5.44404174
  C     -3.37402619      1.43515764     -5.01434246
  H     -3.12997809      2.29252385     -5.63030440
  H     -5.42556274     -1.26305954     -5.00804077
  H     -4.84647219      0.70876051     -6.38777813
  H     -2.54804443     -0.05008487     -2.08619923
  H     -3.69497779      6.49495813     -4.77740307
  C     -0.28177848      2.61380010     -4.51174914
  C      0.55765423      3.73216551     -4.49973621
  C      1.56259818      3.86852441     -5.44335827
  C      1.75278360      2.88586651     -6.40642387
  C      0.93308560      1.76517026     -6.42021047
  C     -0.07315031      1.62585885     -5.47636241
  H      2.53957053      2.99275865     -7.14382454
  H      1.07814540      0.99168607     -7.16602261
  H     -0.70331706      0.74381140     -5.48818196
  H     -4.26000349     -1.64130942     -2.85223840
  H      2.20348879      4.74257218     -5.42318549
  H      0.41933873      4.49930138     -3.74487370
  P     -1.08921876     -5.41801385      0.65452247
  C      0.57199224     -6.09864452      0.94250754
  C      0.83384866     -7.46369809      1.07801769
  C      2.13151856     -7.91158688      1.27517748
  C      3.18250829     -7.00673655      1.33840341
  C      2.93259687     -5.64587148      1.21298423
  C      1.63585303     -5.19583695      1.02250417
  H      4.19544765     -7.35988274      1.49166834
  H      0.01768384     -8.17589178      1.03694184
  H      1.44060632     -4.13137355      0.93745969
  H      3.74732939     -4.93286754      1.27231479
  C     -1.25620316     -5.45804654     -1.15920223
  C     -1.96916717     -4.42927737     -1.77858776
  C     -2.12682715     -4.40423163     -3.15496222
  C     -1.55748574     -5.39974661     -3.93704277
  C     -0.84197478     -6.42522177     -3.33398583
  C     -0.69328153     -6.45789855     -1.95592959
  H     -0.13038667     -7.26203769     -1.49544231
  H     -1.67152642     -5.37591045     -5.01452160
  H     -0.39488500     -7.20451137     -3.94029491
  H     -2.40459199     -3.64234586     -1.17236203
  H      2.32261940     -8.97315665      1.38029183
  C     -2.23468183     -6.68836908      1.26493867
  C     -2.29209296     -6.88787546      2.64931396
  C     -3.18990181     -7.79179812      3.19223518
  C     -4.05258414     -8.49759313      2.36271100
  C     -4.01284948     -8.29620440      0.99051661
  C     -3.11263432     -7.39487100      0.44149253
  H     -4.75753152     -9.20205567      2.78801959
  H     -4.68684039     -8.84250706      0.34097041
  H     -3.08949893     -7.24287803     -0.63145264
  H     -2.69868478     -3.60748886     -3.61687158
  H     -3.21993047     -7.94328348      4.26503034
  H     -1.62307176     -6.33119639      3.29806064
  P     -4.20093664      0.73451144      1.26316021
  C     -5.16080660      0.89371668     -0.28036365
  C     -6.28095451      0.11262029     -0.57661737
  C     -7.01643966      0.35327088     -1.72681432
  C     -6.66306615      1.38826253     -2.58291394
  C     -5.56481825      2.18319339     -2.28751025
  C     -4.81681656      1.93101278     -1.14837983
  H     -7.24602962      1.57706217     -3.47661984
  H     -6.58456986     -0.68112059      0.09630825
  H     -3.95360057      2.54664547     -0.92168616
  H     -5.28405689      2.99634949     -2.94743236
  C     -5.31168248      1.64838248      2.38057660
  C     -5.07912596      3.01740855      2.53123118
  C     -5.94476185      3.80242344      3.27608165
  C     -7.04569019      3.22583964      3.89534728
  C     -7.28265696      1.86465512      3.75661635
  C     -6.43006206      1.08031971      2.99534112
  H     -6.63800216      0.02321553      2.87547880
  H     -7.72048228      3.83725550      4.48262129
  H     -8.14327604      1.41155345      4.23478609
  H     -4.21262070      3.46716602      2.05730974
  H     -7.87815557     -0.26502684     -1.95012654
  C     -4.36145286     -1.01022762      1.75321475
  C     -4.35630585     -2.03694317      0.80530574
  C     -4.35176017     -3.36710430      1.20367144
  C     -4.32697900     -3.69425366      2.55488564
  C     -4.30096590     -2.68330353      3.50602999
  C     -4.31264720     -1.35388633      3.10905860
  H     -4.32380191     -4.73361128      2.86141564
  H     -4.27133348     -2.92749789      4.56165690
  H     -4.29633577     -0.57145130      3.85926216
  H     -5.75723486      4.86527528      3.37567936
  H     -4.37537177     -4.15187597      0.45669223
  H     -4.35504165     -1.79728939     -0.25215441
  P      1.78781261     -2.10852928     -4.02440112
  C      3.33523084     -1.42477133     -4.69372479
  C      4.41538725     -2.19395701     -5.12750247
  C      5.55262755     -1.58111529     -5.63448203
  C      5.62469831     -0.19781236     -5.71725911
  C      4.55553406      0.57710611     -5.28581268
  C      3.42372409     -0.03093891     -4.76878137
  H      6.51221394      0.27721436     -6.11824015
  H      4.36905586     -3.27537853     -5.07102187
  H      2.59009083      0.57512462     -4.42803811
  H      4.60224044      1.65784848     -5.35780626
  C      0.64841125     -1.97716016     -5.43715330
  C     -0.72076617     -1.90624828     -5.17024756
  C     -1.63900252     -1.83266684     -6.20593560
  C     -1.20007246     -1.80958426     -7.52305238
  C      0.15932458     -1.85987463     -7.79957918
  C      1.07991295     -1.94521278     -6.76561387
  H      2.13953295     -1.97929512     -6.99155930
  H     -1.91766760     -1.74656568     -8.33252265
  H      0.50695485     -1.83494354     -8.82575554
  H     -1.06271856     -1.90497486     -4.14032704
  H      6.38348430     -2.18969287     -5.97202851
  C      2.07626264     -3.89783117     -3.86348327
  C      2.22668000     -4.43692736     -2.58408711
  C      2.50273128     -5.78503121     -2.41504118
  C      2.61178515     -6.61662647     -3.52101240
  C      2.43370487     -6.09741536     -4.79668703
  C      2.16952374     -4.74771799     -4.96944428
  H      2.82791283     -7.67009751     -3.38822338
  H      2.50520404     -6.74536458     -5.66241173
  H      2.02933406     -4.35165112     -5.96883868
  H     -2.69890595     -1.78700780     -5.98389049
  H      2.63216804     -6.18643993     -1.41707504
  H      2.12029986     -3.79324583     -1.71684138
