246
Energy =   -372.46028172 au
 Au      0.24842176     -0.66460597      1.93380875
 Au      0.68262507     -0.46768828     -1.08230939
 Au      0.21073513      1.80316633      0.15356911
 Au      2.74622926      0.24589017      1.25977234
 Au     -1.58120823     -2.03388439      0.61064624
 Au     -2.16104764      0.39089529      1.62876350
 Au     -0.30355599      1.62362798     -2.44306639
 Au      2.40790647     -1.22107308      3.40368958
  P      2.14448191     -2.82076875      5.15164444
  C      0.48167674     -3.46758432      4.78031885
  C      0.24085202     -4.77896125      4.36989385
  C     -1.01944506     -5.16184919      3.93243812
  C     -2.05937998     -4.24398044      3.90335546
  C     -1.83803586     -2.93927163      4.32767522
  C     -0.57763382     -2.55364121      4.75394151
  H     -3.04140210     -4.54219273      3.55448740
  H      1.04259956     -5.50799780      4.39170323
  H     -0.40744190     -1.52984015      5.06952717
  H     -2.64760073     -2.21791978      4.31897748
  C      2.07479245     -2.32484386      6.90072702
  C      3.17875323     -1.63505970      7.41432614
  C      3.18874236     -1.20492925      8.73127407
  C      2.09325282     -1.44881134      9.54988747
  C      0.99236241     -2.12847950      9.04832093
  C      0.97958420     -2.56548265      7.73188198
  H      0.11569189     -3.09787693      7.35100970
  H      2.09895771     -1.10902516     10.57883318
  H      0.13682658     -2.32295215      9.68479546
  H      4.03630255     -1.44631413      6.77628344
  H     -1.18696470     -6.18283029      3.60878168
  C      3.21820200     -4.28559885      5.12705477
  C      4.08931425     -4.45416261      4.04818468
  C      4.90897194     -5.56959957      3.97262143
  C      4.87328435     -6.52488452      4.97926719
  C      4.01940805     -6.36100752      6.06245159
  C      3.19567557     -5.24928247      6.13948714
  H      5.51589839     -7.39563842      4.92296445
  H      3.99561420     -7.10285109      6.85221067
  H      2.53302588     -5.12304295      6.98849069
  H      4.05195123     -0.67661884      9.11915810
  H      5.57940904     -5.69014033      3.12934656
  H      4.12637061     -3.69813263      3.26994159
  P     -0.61191595      2.44620912     -4.64396564
  C      0.12363025      1.31765672     -5.86389192
  C     -0.18573405      1.34734624     -7.22683751
  C      0.41173887      0.45126002     -8.10013049
  C      1.32382490     -0.48450958     -7.63047389
  C      1.63864923     -0.52446737     -6.27901657
  C      1.03975870      0.36825123     -5.40564706
  H      1.78560235     -1.18483731     -8.31644714
  H     -0.90315864      2.06750205     -7.60319348
  H      1.27414472      0.32625220     -4.34737588
  H      2.34461489     -1.25596024     -5.90138071
  C      0.32905968      3.99684968     -4.79771035
  C      0.41080325      4.82147901     -3.67153578
  C      1.13005968      6.00486095     -3.71065435
  C      1.78917720      6.37609496     -4.87508931
  C      1.72009894      5.56272982     -5.99849525
  C      0.99384733      4.38190672     -5.96401985
  H      0.94849091      3.75287150     -6.84570557
  H      2.35806069      7.29782086     -4.90631771
  H      2.23396511      5.84940983     -6.90862282
  H     -0.09151307      4.52465605     -2.75636453
  H      0.16178113      0.48358343     -9.15420389
  C     -2.24694598      2.84285698     -5.33614421
  C     -3.08213135      1.79911918     -5.74818670
  C     -4.35159348      2.06596985     -6.23578456
  C     -4.81393976      3.37421564     -6.29828365
  C     -3.99916798      4.41569775     -5.87586767
  C     -2.72361417      4.15406000     -5.39725975
  H     -5.80663166      3.58116413     -6.68005833
  H     -4.35209574      5.43902505     -5.92977484
  H     -2.08982373      4.97476270     -5.08095791
  H      1.17979064      6.63472840     -2.82973334
  H     -4.97979558      1.25068702     -6.57597859
  H     -2.72680077      0.77482021     -5.69955828
  P      4.58494109      1.21343551      0.03296774
  C      5.53974101      2.17202047      1.24637290
  C      6.37530996      1.51816432      2.15580865
  C      6.98934722      2.22250061      3.17972674
  C      6.77081317      3.58665311      3.31966756
  C      5.93288047      4.24508329      2.42984855
  C      5.31547254      3.54261110      1.40613949
  H      7.25153806      4.13506023      4.12103078
  H      6.54757958      0.45204901      2.05760977
  H      4.65910068      4.06293640      0.71870911
  H      5.75322063      5.30937219      2.53218907
  C      4.53276229      2.27141713     -1.45649695
  C      3.47031297      2.09197128     -2.34372785
  C      3.38597496      2.82629495     -3.51493865
  C      4.35585250      3.77443063     -3.80901535
  C      5.41311572      3.97173679     -2.93084832
  C      5.50807850      3.22270783     -1.76689514
  H      6.34255882      3.38550429     -1.09491125
  H      4.28557227      4.35824958     -4.71946043
  H      6.17404779      4.71027775     -3.15496794
  H      2.69930560      1.36689028     -2.10885448
  H      7.64112701      1.70281728      3.87246222
  C      5.73554005     -0.12239654     -0.43006348
  C      5.41617114     -1.43429367     -0.07542828
  C      6.28401494     -2.47778278     -0.35455071
  C      7.48388827     -2.22479600     -1.00450909
  C      7.80619196     -0.92675702     -1.37941471
  C      6.94106931      0.11776166     -1.09524303
  H      8.16530810     -3.03852168     -1.22292070
  H      8.73926251     -0.72636016     -1.89303285
  H      7.20548655      1.12722030     -1.38895855
  H      2.55943775      2.65903800     -4.19569391
  H      6.01999821     -3.48921565     -0.06734781
  H      4.47589626     -1.63601518      0.42634062
  P      1.39243210     -2.52420379     -2.03604905
  C      3.10897566     -2.60178346     -2.63926936
  C      3.86616642     -3.77546064     -2.63770723
  C      5.14242278     -3.78376784     -3.18049656
  C      5.68042992     -2.62550757     -3.72522182
  C      4.94166805     -1.44992728     -3.71829472
  C      3.66592624     -1.44021868     -3.17865448
  H      6.67806283     -2.63703274     -4.14785624
  H      3.45750484     -4.68357161     -2.20957400
  H      3.09032607     -0.52182543     -3.17241117
  H      5.35904402     -0.53861816     -4.13092513
  C      0.45482184     -2.88017897     -3.55649752
  C     -0.67725107     -2.11505214     -3.84135836
  C     -1.38200228     -2.29486587     -5.02186081
  C     -0.96346611     -3.24993849     -5.93826885
  C      0.15940919     -4.02126084     -5.66659891
  C      0.86805537     -3.83603010     -4.48969598
  H      1.75613300     -4.42812330     -4.29930895
  H     -1.50713513     -3.38891933     -6.86515496
  H      0.49197701     -4.76526792     -6.38100652
  H     -1.00664386     -1.36526818     -3.13130241
  H      5.71945682     -4.70116708     -3.17768015
  C      1.24418252     -3.99068707     -0.97069080
  C      1.76828720     -3.88158652      0.32166863
  C      1.68239274     -4.93757666      1.21181294
  C      1.06745114     -6.12137288      0.82561922
  C      0.54478619     -6.24058518     -0.45377106
  C      0.62579321     -5.18244837     -1.34769631
  H      0.99708498     -6.94885704      1.52176119
  H      0.06693045     -7.16337160     -0.76106630
  H      0.20528839     -5.28453546     -2.34163202
  H     -2.25211102     -1.68127084     -5.22750206
  H      2.09609469     -4.83637058      2.20850509
  H      2.25147077     -2.95862436      0.62575034
  P      0.51517384      3.51125204      1.78875471
  C     -0.86350290      4.57267238      2.32493870
  C     -1.09766186      4.94105193      3.65042014
  C     -2.14479784      5.79560310      3.96148621
  C     -2.96823521      6.29010156      2.95986441
  C     -2.74335897      5.92956457      1.63780322
  C     -1.69684568      5.07906561      1.32312782
  H     -3.78567294      6.95626275      3.20901599
  H     -0.45889316      4.56541040      4.44122084
  H     -1.51372695      4.80822532      0.28863076
  H     -3.38279920      6.31230677      0.85069649
  C      1.73621174      4.74704546      1.24881073
  C      2.18574746      4.72789065     -0.07228299
  C      3.07585480      5.68821040     -0.53070409
  C      3.52773513      6.68057041      0.32866022
  C      3.08661562      6.70976625      1.64598523
  C      2.19330509      5.75480076      2.10398827
  H      1.84338342      5.78965341      3.12984735
  H      4.22219517      7.43210412     -0.02776360
  H      3.43554590      7.48504698      2.31803897
  H      1.83719710      3.95175884     -0.74511852
  H     -2.31721772      6.07659248      4.99392406
  C      1.19649361      2.77713319      3.30383013
  C      0.35073008      2.02816034      4.12916303
  C      0.85962731      1.31138071      5.20006458
  C      2.22719409      1.31399291      5.45322788
  C      3.07868631      2.04267654      4.63268589
  C      2.56811448      2.76625398      3.56423051
  H      2.62353386      0.75475131      6.29234294
  H      4.14606637      2.04751203      4.82151426
  H      3.24252214      3.32840235      2.92880946
  H      3.41719344      5.65821900     -1.55935160
  H      0.19038148      0.74470983      5.83717146
  H     -0.71485072      2.00656980      3.92594745
  P     -4.17806661      1.63821786      1.54866007
  C     -4.46412614      2.74831550      2.95939631
  C     -5.34808183      3.82913507      2.92723115
  C     -5.56260238      4.59080721      4.06542957
  C     -4.89713471      4.28875021      5.24649325
  C     -4.00457011      3.22610648      5.28542906
  C     -3.78906298      2.46282694      4.14905425
  H     -5.07134002      4.88413061      6.13488187
  H     -5.87025540      4.07653705      2.01028920
  H     -3.09285509      1.63075054      4.17882995
  H     -3.47610092      2.99001111      6.20177921
  C     -5.64643332      0.56156983      1.54321476
  C     -5.97209177     -0.11373411      0.36240826
  C     -7.05472416     -0.97580973      0.31678648
  C     -7.82431525     -1.18394702      1.45403321
  C     -7.49881900     -0.53359013      2.63652348
  C     -6.41392482      0.32966554      2.68564338
  H     -6.16965663      0.83353849      3.61381401
  H     -8.67320706     -1.85647619      1.41959119
  H     -8.09451394     -0.69599688      3.52726454
  H     -5.37506685      0.04967204     -0.52766310
  H     -6.25574565      5.42320225      4.03025858
  C     -4.42895446      2.62521408      0.03906945
  C     -3.31353989      2.97120655     -0.72319769
  C     -3.44638985      3.69798544     -1.89532906
  C     -4.70644135      4.08636326     -2.32843094
  C     -5.82717298      3.74237326     -1.58491962
  C     -5.69361354      3.01600961     -0.41156064
  H     -4.81406428      4.64825629     -3.24895018
  H     -6.81369736      4.03779832     -1.92265467
  H     -6.57828335      2.73682226      0.14884782
  H     -7.29558527     -1.48681138     -0.60867689
  H     -2.56486415      3.95716896     -2.47098761
  H     -2.33009761      2.65643187     -0.39398589
  P     -3.17613953     -3.29692348     -0.62765470
  C     -2.87688583     -4.84352296     -1.53701326
  C     -2.80744362     -6.05025992     -0.83301289
  C     -2.52756905     -7.23525959     -1.49541965
  C     -2.28602190     -7.23021621     -2.86363572
  C     -2.33042725     -6.03464795     -3.56758457
  C     -2.62621813     -4.84977252     -2.91077469
  H     -2.06424258     -8.15705111     -3.37914664
  H     -2.98328233     -6.05999923      0.23730411
  H     -2.67124280     -3.92290128     -3.47053569
  H     -2.13969691     -6.02151152     -4.63471241
  C     -3.92511164     -2.17974590     -1.86047507
  C     -3.43047584     -0.88044366     -1.98520489
  C     -3.99937385      0.02002093     -2.87317956
  C     -5.08133882     -0.36788489     -3.65038159
  C     -5.58079091     -1.65935863     -3.54311598
  C     -5.00888726     -2.55926499     -2.65761245
  H     -5.41048213     -3.56312263     -2.58125065
  H     -5.53696338      0.33683451     -4.33585441
  H     -6.42424175     -1.96662078     -4.15033186
  H     -2.59442330     -0.56713649     -1.37093860
  H     -2.49969018     -8.16649079     -0.94161341
  C     -4.57554432     -3.71694228      0.45972681
  C     -4.67069755     -3.08108959      1.69935818
  C     -5.70540088     -3.37411393      2.57306271
  C     -6.67050466     -4.30590975      2.21607957
  C     -6.59435420     -4.93906921      0.98285249
  C     -5.55537644     -4.65169474      0.11153254
  H     -7.47939736     -4.53908582      2.89824464
  H     -7.34557254     -5.66662221      0.69841067
  H     -5.50070207     -5.16566097     -0.84124185
  H     -3.60070902      1.02578214     -2.94940115
  H     -5.75877607     -2.87131156      3.53178897
  H     -3.92273125     -2.34799532      1.98009499
