246
Energy =   -372.44593537 au
 Au      2.54041975     -0.67144947      0.54640675
 Au     -1.50416282     -0.53833192     -2.22868422
 Au     -2.72304966     -0.00877578      0.38138912
 Au     -0.12069101     -0.61264730      0.18529415
 Au      0.81630087     -2.46788477      1.79766350
 Au      1.36711877     -0.06917041     -1.98264211
 Au     -0.77674582      1.74562784     -1.07774488
 Au     -1.20448674     -0.64873161      2.64482920
  P     -0.98378924      4.09715007     -1.33450998
  C     -0.11233041      5.20324610     -0.18541665
  C      0.74763999      6.22766518     -0.58423648
  C      1.37915654      7.02000876      0.36440416
  C      1.16410569      6.79784732      1.71741159
  C      0.32330902      5.76964029      2.12455969
  C     -0.30047325      4.97055773      1.18151339
  H      1.65270373      7.42315335      2.45526369
  H      0.91892213      6.41289834     -1.63832106
  H     -0.94445380      4.15747781      1.50197313
  H      0.15553492      5.58762810      3.17980518
  C     -2.72259449      4.62242750     -1.22568298
  C     -3.67846282      3.78709077     -1.81061485
  C     -5.02217070      4.11982489     -1.77973799
  C     -5.43127043      5.29237145     -1.15788092
  C     -4.49108372      6.12852209     -0.57246435
  C     -3.14392541      5.79902195     -0.60440750
  H     -2.41837326      6.45715979     -0.14071526
  H     -6.48298162      5.55142285     -1.12685088
  H     -4.80675957      7.04366015     -0.08509822
  H     -3.35829243      2.86885574     -2.29309356
  H      2.03696995      7.81884517      0.04223538
  C     -0.53201499      4.61360712     -3.01799122
  C      0.10501139      3.69666116     -3.85596178
  C      0.41792249      4.02993537     -5.16445985
  C      0.09878547      5.28910227     -5.65342541
  C     -0.54033787      6.20886447     -4.83199654
  C     -0.85998126      5.87490196     -3.52545241
  H      0.34153669      5.55135629     -6.67646211
  H     -0.79805106      7.19000426     -5.21341441
  H     -1.37795348      6.59086473     -2.89695459
  H     -5.75109941      3.46053620     -2.23707096
  H      0.90877626      3.30314334     -5.80198506
  H      0.34682162      2.70866039     -3.47842533
  P     -2.37689403     -1.74152042     -4.05794546
  C     -1.44437206     -3.25910810     -4.42378395
  C     -1.99437136     -4.35339304     -5.09522081
  C     -1.21872698     -5.47245404     -5.35914545
  C      0.10913434     -5.51676312     -4.95601905
  C      0.66242712     -4.43972145     -4.27622566
  C     -0.11135001     -3.32235217     -4.00916767
  H      0.71110543     -6.39341481     -5.16445259
  H     -3.03371944     -4.33211457     -5.40300298
  H      0.31804171     -2.48891720     -3.46197734
  H      1.69604549     -4.46951612     -3.94887775
  C     -2.28783501     -0.76190522     -5.58672452
  C     -2.12732241      0.62060198     -5.46750928
  C     -2.04298967      1.42540486     -6.59197960
  C     -2.12414077      0.85778014     -7.85625557
  C     -2.28107465     -0.51594965     -7.98942411
  C     -2.35590583     -1.32388730     -6.86456672
  H     -2.45851962     -2.39695548     -6.97963481
  H     -2.05937938      1.48436053     -8.73797069
  H     -2.34179117     -0.96228620     -8.97512972
  H     -2.06365800      1.06608273     -4.47971334
  H     -1.65555349     -6.31575938     -5.88126092
  C     -4.11169570     -2.26045091     -3.89782192
  C     -4.51904059     -2.72585208     -2.64325695
  C     -5.83454234     -3.09644351     -2.42083669
  C     -6.76595822     -2.99815719     -3.44653049
  C     -6.37434292     -2.53127924     -4.69341128
  C     -5.05663799     -2.16111811     -4.92051148
  H     -7.79745438     -3.28014723     -3.27144683
  H     -7.09907608     -2.44946195     -5.49509445
  H     -4.76442665     -1.78925333     -5.89574463
  H     -1.91041064      2.49567524     -6.47972692
  H     -6.13550793     -3.45669367     -1.44360452
  H     -3.79501924     -2.79058755     -1.83695586
  P     -1.04994019      0.25654817      4.85542120
  C     -2.54536678      0.85487287      5.69875076
  C     -3.12536891      0.19337526      6.78187457
  C     -4.33361126      0.63249514      7.30368265
  C     -4.97932803      1.72903216      6.74899800
  C     -4.41349133      2.39050046      5.66538035
  C     -3.20918587      1.95276852      5.13937526
  H     -5.92254877      2.06922547      7.15972351
  H     -2.62834689     -0.66408632      7.22132491
  H     -2.77346355      2.46643276      4.28824991
  H     -4.91158633      3.24834106      5.22748256
  C      0.02601709      1.72278320      4.77369764
  C      0.83910466      1.89122430      3.65091993
  C      1.70966856      2.96499120      3.55615793
  C      1.78154675      3.89068017      4.58884942
  C      0.96529982      3.74652812      5.70329115
  C      0.09112210      2.67401049      5.79606571
  H     -0.54872122      2.57436433      6.66554862
  H      2.47068264      4.72457261      4.52226380
  H      1.01083035      4.47274548      6.50651361
  H      0.78370677      1.17234781      2.84081306
  H     -4.77162666      0.11506434      8.14931271
  C     -0.20959011     -0.85481040      6.02615322
  C     -0.60549184     -2.19604067      6.02720333
  C      0.03069356     -3.12166661      6.83786912
  C      1.08009144     -2.72145317      7.65430072
  C      1.48696276     -1.39454207      7.65665627
  C      0.84905696     -0.46527753      6.84839517
  H      1.58487711     -3.44535541      8.28309104
  H      2.30698510     -1.07903516      8.29145644
  H      1.17687576      0.56781368      6.85930797
  H      2.32910807      3.08053477      2.67428134
  H     -0.28664949     -4.15812916      6.82552462
  H     -1.41744168     -2.51151033      5.38041561
  P     -5.02092700      0.61452662      0.65627084
  C     -6.12521726      0.54447453     -0.78948744
  C     -7.51201818      0.40095737     -0.69865623
  C     -8.28857294      0.36379279     -1.84686673
  C     -7.69627627      0.47093938     -3.09786556
  C     -6.31825278      0.60642538     -3.20127778
  C     -5.54011735      0.63561818     -2.05522070
  H     -8.30697256      0.44122387     -3.99250509
  H     -7.98481063      0.30801657      0.27230030
  H     -4.46103273      0.72066364     -2.13835059
  H     -5.84707721      0.67804404     -4.17504821
  C     -5.18674134      2.30349848      1.32034988
  C     -4.02833254      2.98007317      1.70648168
  C     -4.10030765      4.24202269      2.27604970
  C     -5.33491647      4.84835896      2.46211484
  C     -6.49374174      4.19196202      2.06758904
  C     -6.42285394      2.92906669      1.50149220
  H     -7.33346300      2.42387829      1.20070517
  H     -5.39386353      5.83391031      2.90862681
  H     -7.45886781      4.66536363      2.20511933
  H     -3.06226503      2.50873076      1.55812439
  H     -9.36306144      0.24942430     -1.76333060
  C     -5.82733381     -0.40477959      1.92472062
  C     -6.34873368     -1.65807253      1.58940074
  C     -6.83725995     -2.50253339      2.57360090
  C     -6.79566513     -2.11787846      3.90738411
  C     -6.26250908     -0.88377265      4.25343032
  C     -5.77813437     -0.03446765      3.27139206
  H     -7.17521928     -2.78093150      4.67585203
  H     -6.21985824     -0.57907727      5.29331296
  H     -5.35925457      0.92557632      3.55250228
  H     -3.19113399      4.75346232      2.57134256
  H     -7.24799156     -3.46709858      2.29814407
  H     -6.37329986     -1.97012079      0.55051528
  P      1.33086881     -4.53605848      2.82170835
  C      2.28441295     -5.53481449      1.63787947
  C      3.40560632     -6.29355476      1.97570174
  C      4.09602616     -6.99506288      0.99778880
  C      3.67684731     -6.95034996     -0.32442266
  C      2.56227632     -6.19649976     -0.67210710
  C      1.87657399     -5.48913418      0.30102534
  H      4.21757799     -7.50118610     -1.08512224
  H      3.74085827     -6.33421949      3.00573029
  H      1.01267638     -4.89136335      0.02776375
  H      2.22614965     -6.16092341     -1.70254136
  C     -0.12852064     -5.56219355      3.17515336
  C     -1.33492887     -4.92062209      3.46269303
  C     -2.47555982     -5.65281444      3.75005769
  C     -2.42640474     -7.04034621      3.74601075
  C     -1.23586578     -7.69017837      3.44891116
  C     -0.09285700     -6.95933530      3.16344172
  H      0.83018379     -7.47399586      2.92120160
  H     -3.31783140     -7.61531582      3.96762586
  H     -1.19679044     -8.77322344      3.43735422
  H     -1.37688164     -3.83609896      3.45323723
  H      4.96578904     -7.58085753      1.27184525
  C      2.31144439     -4.56122937      4.35338286
  C      3.25368488     -3.54632025      4.54192050
  C      4.04184980     -3.52206848      5.68100485
  C      3.89130581     -4.50116442      6.65396126
  C      2.94708155     -5.50472495      6.48399587
  C      2.16070066     -5.53599769      5.34249224
  H      4.50751601     -4.47988370      7.54505464
  H      2.82238814     -6.26888591      7.24232440
  H      1.42561089     -6.32298905      5.21936589
  H     -3.40406781     -5.13930641      3.97276918
  H      4.77421738     -2.73379727      5.81173257
  H      3.36695733     -2.77219464      3.78900687
  P      4.65025882      0.27047501      1.15233229
  C      4.52573361      2.08672560      1.05197600
  C      5.25637247      2.95051272      1.87216009
  C      5.08998025      4.32357624      1.77188063
  C      4.18798530      4.85435411      0.85981908
  C      3.45233662      4.00608256      0.04351526
  C      3.62212397      2.63476472      0.13938916
  H      4.05201391      5.92723705      0.78887704
  H      5.95008070      2.54628541      2.60047264
  H      3.04382552      1.97639802     -0.50008174
  H      2.73894117      4.41238219     -0.66473403
  C      6.10785047     -0.14545164      0.14770186
  C      6.05307334     -1.31506837     -0.61382479
  C      7.11938829     -1.68667246     -1.41772841
  C      8.25779951     -0.89339857     -1.46777969
  C      8.32213623      0.27415606     -0.71755502
  C      7.25362264      0.65154914      0.08165554
  H      7.30616993      1.57310440      0.65027997
  H      9.09350458     -1.18209851     -2.09423895
  H      9.20938049      0.89545168     -0.75552646
  H      5.16192682     -1.93318396     -0.57731721
  H      5.66409694      4.98193986      2.41345738
  C      5.13451132      0.01865442      2.88880395
  C      4.11569930      0.12349560      3.84189274
  C      4.39197046     -0.02355464      5.19039753
  C      5.69016565     -0.29617741      5.60645888
  C      6.70339250     -0.42791532      4.66686766
  C      6.43043361     -0.27260489      3.31532011
  H      5.90997794     -0.40477064      6.66199339
  H      7.71492989     -0.64879679      4.98721913
  H      7.22957327     -0.37466495      2.59009372
  H      7.05956162     -2.59567106     -2.00569045
  H      3.59318865      0.07005525      5.91757395
  H      3.10050072      0.33085851      3.51849338
  P      2.95718616      0.03625406     -3.77172939
  C      2.41414570      0.31535633     -5.48896875
  C      2.76680636      1.43537242     -6.24316702
  C      2.28130576      1.59256781     -7.53409654
  C      1.44446934      0.63470941     -8.08850392
  C      1.08837819     -0.48384704     -7.34588108
  C      1.55918306     -0.63732102     -6.05323133
  H      1.07145929      0.75687138     -9.09853654
  H      3.43370518      2.18209290     -5.82812914
  H      1.27184722     -1.51024130     -5.47588547
  H      0.43787935     -1.23769512     -7.77416828
  C      3.86479844     -1.53533740     -3.89338025
  C      3.67427717     -2.50902624     -2.91161057
  C      4.35557121     -3.71555532     -2.96477654
  C      5.23733768     -3.96671516     -4.00740365
  C      5.42672429     -3.01162231     -4.99807418
  C      4.74526324     -1.80593820     -4.94592862
  H      4.89108807     -1.06925639     -5.72801537
  H      5.77121690     -4.90865271     -4.05170846
  H      6.10868784     -3.20766050     -5.81717945
  H      2.98268808     -2.31770421     -2.09852704
  H      2.56811758      2.46427357     -8.11082841
  C      4.22659707      1.30101057     -3.46453585
  C      3.79261655      2.61821080     -3.27483464
  C      4.69830182      3.62729295     -2.99092916
  C      6.05023603      3.33345437     -2.86997907
  C      6.48884158      2.02829915     -3.03886697
  C      5.58609664      1.01707703     -3.33239914
  H      6.75886995      4.12042277     -2.64063591
  H      7.54191606      1.79163530     -2.94022725
  H      5.94360986      0.00131955     -3.45623716
  H      4.19719066     -4.45788628     -2.19039510
  H      4.34723192      4.64401975     -2.85685795
  H      2.73499671      2.84987448     -3.34768102
