246
Energy =   -372.45104449 au
 Au      2.39359192      1.11033262     -0.08674472
 Au     -1.38493554     -1.96940847      0.04243444
 Au      1.16596078      0.19789568      2.29959340
 Au      1.69084047     -1.66151891      0.52777831
 Au      1.00918873      1.50011057     -2.56088856
 Au      0.38057698      3.08811595     -0.58575916
 Au     -2.77698671      0.24268065     -0.72755328
 Au     -0.21030338      0.35012397     -0.24181545
  P      0.81219932      0.35959436     -4.64568471
  C      1.71612351      1.10261938     -6.03494632
  C      1.69557245      0.55259175     -7.32057804
  C      2.42929753      1.13520782     -8.34102245
  C      3.19704704      2.26607064     -8.09278600
  C      3.22852471      2.81711232     -6.81937168
  C      2.49300018      2.23815322     -5.79668076
  H      3.77294260      2.71622590     -8.89274875
  H      1.10592726     -0.33599585     -7.51779676
  H      2.51745936      2.66709610     -4.80000894
  H      3.82769670      3.69810665     -6.62035059
  C     -0.94574136      0.40668148     -5.10739707
  C     -1.84686956     -0.31845254     -4.31915935
  C     -3.20863205     -0.25074389     -4.56109197
  C     -3.69463461      0.55234336     -5.58498386
  C     -2.81180134      1.28947731     -6.36064138
  C     -1.44635706      1.22188569     -6.12277799
  H     -0.76525235      1.80352556     -6.73333144
  H     -4.76096007      0.60843907     -5.77026359
  H     -3.18679687      1.92346938     -7.15572996
  H     -1.47129678     -0.94323280     -3.51495032
  H      2.40517387      0.70245949     -9.33435511
  C      1.25188473     -1.40482453     -4.79492823
  C      2.43574863     -1.83674309     -4.19248372
  C      2.87457801     -3.14151957     -4.35086930
  C      2.13065342     -4.03720277     -5.10688140
  C      0.94220785     -3.62449864     -5.69405487
  C      0.50375678     -2.31752691     -5.54173062
  H      2.47372693     -5.05731823     -5.23293780
  H      0.35602218     -4.32087175     -6.28247331
  H     -0.42280561     -2.00542447     -6.00950617
  H     -3.89467235     -0.82283005     -3.94721043
  H      3.79972653     -3.45891077     -3.88411456
  H      3.01953043     -1.13807524     -3.60265098
  P      4.75881302      1.50814611      0.04988366
  C      5.27887709      3.06875494      0.83015237
  C      5.88077501      3.14220758      2.08681258
  C      6.21254189      4.37410708      2.63306685
  C      5.94829453      5.54429333      1.93411900
  C      5.33722578      5.48179365      0.68730574
  C      4.99438554      4.25483205      0.14429822
  H      6.22199419      6.50355725      2.35711057
  H      6.10486841      2.23505165      2.63613472
  H      4.51458813      4.20937950     -0.82810295
  H      5.13362456      6.39106348      0.13364128
  C      5.59763693      1.55739145     -1.56279151
  C      4.90096327      1.13536516     -2.69629186
  C      5.49733771      1.15579895     -3.94749751
  C      6.80439552      1.60383508     -4.08179734
  C      7.50645188      2.03543588     -2.96385576
  C      6.91036835      2.01634126     -1.71260895
  H      7.46065271      2.36662123     -0.84663605
  H      7.27369252      1.62258738     -5.05837038
  H      8.52450075      2.39233284     -3.06731283
  H      3.87576103      0.79452393     -2.59388675
  H      6.69053724      4.41743907      3.60483626
  C      5.59744253      0.20315867      1.00248105
  C      5.04190573     -0.15525224      2.23560172
  C      5.58913881     -1.18022291      2.98868877
  C      6.69382537     -1.87711970      2.51473847
  C      7.24756292     -1.53821381      1.28826547
  C      6.70649596     -0.50482357      0.53777747
  H      7.12240383     -2.68008131      3.10281636
  H      8.10617247     -2.08117789      0.91042443
  H      7.15020290     -0.25090826     -0.41768081
  H      4.93789507      0.82834262     -4.81662208
  H      5.14855201     -1.44040051      3.94439826
  H      4.16889008      0.37457387      2.60465123
  P      1.11652091      1.08707979      4.49992444
  C     -0.38165712      0.74281031      5.46887825
  C     -0.43521562      0.93205138      6.85346337
  C     -1.59007143      0.62872207      7.55624407
  C     -2.69993982      0.12243150      6.89174710
  C     -2.65158655     -0.08252924      5.51991931
  C     -1.49985065      0.22684700      4.81246121
  H     -3.59999976     -0.11878935      7.44486023
  H      0.43472002      1.30895601      7.37990696
  H     -1.46336316      0.06876608      3.73923779
  H     -3.51202832     -0.48702003      4.99870289
  C      1.47107532      2.85799163      4.69901460
  C      2.61188732      3.35667541      4.05994708
  C      2.93779692      4.69894097      4.14984202
  C      2.11935580      5.56885805      4.85938820
  C      0.97400308      5.08914283      5.47750732
  C      0.65048358      3.74197120      5.39938902
  H     -0.24525043      3.37672417      5.88804290
  H      2.37315213      6.62033799      4.92396569
  H      0.33054212      5.76394677      6.03013161
  H      3.24939693      2.68255399      3.49561697
  H     -1.62277418      0.78217555      8.62854294
  C      2.42055978      0.25987800      5.46214944
  C      2.58643119     -1.11319979      5.25725950
  C      3.55454632     -1.82020785      5.95199535
  C      4.37690845     -1.16094636      6.85796156
  C      4.22515410      0.20312704      7.06352871
  C      3.25318096      0.91200650      6.37281505
  H      5.13632132     -1.71118249      7.40083636
  H      4.86606209      0.72063943      7.76786899
  H      3.14408855      1.97736772      6.53989009
  H      3.83340688      5.06836470      3.66369496
  H      3.66590893     -2.88610478      5.78723386
  H      1.94871968     -1.62708842      4.54494746
  P     -2.55665316     -4.02460793      0.23188143
  C     -2.02934318     -5.52797430      1.11239395
  C     -2.27378259     -5.68954545      2.47814251
  C     -1.79891607     -6.80629047      3.14841735
  C     -1.06657871     -7.77127348      2.46946484
  C     -0.80411847     -7.61239015      1.11467276
  C     -1.27483447     -6.49573531      0.44126074
  H     -0.70451683     -8.64782305      2.99352019
  H     -2.84863140     -4.94353399      3.01570046
  H     -1.06803955     -6.37951310     -0.61671330
  H     -0.23156304     -8.36013407      0.57786732
  C     -3.10599527     -4.61101499     -1.39766705
  C     -2.94439865     -3.75605365     -2.49027982
  C     -3.39052233     -4.11887019     -3.75201266
  C     -4.00263480     -5.35097684     -3.94036877
  C     -4.15714815     -6.21693327     -2.86594510
  C     -3.71376693     -5.85326256     -1.60334452
  H     -3.83414485     -6.54042444     -0.77370806
  H     -4.35272008     -5.63827914     -4.92476609
  H     -4.62779777     -7.18232702     -3.01099319
  H     -2.45370916     -2.79966801     -2.34571415
  H     -2.00543057     -6.92540321      4.20571839
  C     -4.10413078     -3.52621006      1.05650491
  C     -4.01366319     -2.57470523      2.07649418
  C     -5.15175442     -2.10714509      2.71376077
  C     -6.40289944     -2.57412208      2.33180045
  C     -6.50585590     -3.51508186      1.31660910
  C     -5.36665170     -3.99122393      0.68558425
  H     -7.29466489     -2.20482568      2.82430420
  H     -7.47959963     -3.87932319      1.01000823
  H     -5.46431780     -4.72279975     -0.10807083
  H     -3.25720600     -3.44004575     -4.58674644
  H     -5.06232404     -1.37336670      3.50711886
  H     -3.03938407     -2.19534261      2.36661569
  P     -0.79622466      4.72045399      0.69779834
  C     -2.07237174      5.51402283     -0.32986349
  C     -3.36054226      5.80696937      0.12152563
  C     -4.27522696      6.42101405     -0.72199012
  C     -3.91645313      6.75401497     -2.02052241
  C     -2.63680391      6.46819827     -2.47911108
  C     -1.72459344      5.84625825     -1.64214427
  H     -4.63278589      7.23568051     -2.67550763
  H     -3.65079087      5.55233770      1.13436861
  H     -0.72778903      5.61560287     -2.00396520
  H     -2.34867110      6.73216442     -3.49007272
  C      0.13777610      6.13165411      1.36165429
  C      1.53027023      6.04741767      1.41517343
  C      2.28102718      7.11385183      1.88574928
  C      1.65095890      8.27425084      2.31333142
  C      0.26627118      8.36948983      2.26166293
  C     -0.48729047      7.30961773      1.78361918
  H     -1.56656607      7.39769615      1.72586229
  H      2.23916428      9.10735136      2.67958984
  H     -0.22866201      9.27663542      2.58817761
  H      2.02623867      5.14051930      1.08297895
  H     -5.27087476      6.64820898     -0.35869070
  C     -1.75521424      4.05534435      2.09706313
  C     -2.48379183      2.88394102      1.87193241
  C     -3.24342777      2.31408656      2.87827856
  C     -3.29486226      2.91304173      4.13062748
  C     -2.56980647      4.07104283      4.37062558
  C     -1.79808199      4.63589570      3.36482188
  H     -3.89530734      2.47304324      4.91808051
  H     -2.60715149      4.54248012      5.34588513
  H     -1.22910163      5.53557106      3.56860470
  H      3.36186639      7.03872123      1.91576026
  H     -3.80260004      1.40605992      2.68278922
  H     -2.45855320      2.41959070      0.89124190
  P      2.70892567     -3.72542215     -0.07915110
  C      4.34656329     -3.59446393     -0.86404943
  C      5.24918264     -4.66045481     -0.91032919
  C      6.46575717     -4.52038408     -1.55886641
  C      6.79306864     -3.32316617     -2.18201874
  C      5.90480098     -2.25756926     -2.14151695
  C      4.69480151     -2.38986721     -1.47719277
  H      7.74070434     -3.22000930     -2.69724220
  H      4.99938087     -5.60148378     -0.43365727
  H      4.00943569     -1.54987878     -1.42751494
  H      6.15205463     -1.32113662     -2.62807022
  C      1.79008287     -4.84723827     -1.18228214
  C      0.79202834     -4.30732829     -1.99466004
  C      0.08390402     -5.11304814     -2.87270421
  C      0.35913459     -6.47168664     -2.94573942
  C      1.34949340     -7.02019673     -2.14046408
  C      2.06285346     -6.21531208     -1.26635857
  H      2.83343390     -6.65228931     -0.64171221
  H     -0.19635221     -7.10139151     -3.63063767
  H      1.56851795     -8.08016035     -2.19476760
  H      0.57529173     -3.24504776     -1.94216175
  H      7.15945108     -5.35263674     -1.58336561
  C      2.99658223     -4.68351710      1.43271340
  C      4.14563068     -4.46622657      2.19820222
  C      4.29565997     -5.08148233      3.43105641
  C      3.29709792     -5.91149989      3.92335352
  C      2.14427239     -6.12067657      3.17849027
  C      1.99009575     -5.50556540      1.94653801
  H      3.41611716     -6.39191239      4.88731876
  H      1.35736953     -6.76275679      3.55820576
  H      1.08323589     -5.66604693      1.37381450
  H     -0.68167306     -4.67777987     -3.50391262
  H      5.19614203     -4.91076972      4.01000968
  H      4.92589016     -3.81213846      1.82418158
  P     -5.01657192      0.90506648     -1.11801621
  C     -6.22330364     -0.41070510     -1.45930264
  C     -7.60160360     -0.24473646     -1.29364090
  C     -8.47082696     -1.28672611     -1.57757573
  C     -7.98111076     -2.50385290     -2.03297652
  C     -6.61386901     -2.68194782     -2.19477018
  C     -5.74285229     -1.64482191     -1.90153046
  H     -8.66443472     -3.31446184     -2.25707497
  H     -7.99276376      0.69935895     -0.93195453
  H     -4.67344805     -1.79323534     -2.00601807
  H     -6.22350667     -3.63058815     -2.54597109
  C     -5.09656840      2.03542297     -2.54044814
  C     -3.95711795      2.79474235     -2.82113326
  C     -3.93062705      3.65760809     -3.90408928
  C     -5.04478002      3.77504839     -4.72415573
  C     -6.18146982      3.02346568     -4.45733577
  C     -6.20920262      2.15730620     -3.37466449
  H     -7.09881983      1.56929846     -3.18012395
  H     -5.02466124      4.44701442     -5.57405027
  H     -7.05166994      3.10972879     -5.09753580
  H     -3.08209900      2.69741288     -2.18621626
  H     -9.53716024     -1.14684257     -1.44357826
  C     -5.76754758      1.83860164      0.24948265
  C     -6.20850793      1.13471502      1.37524171
  C     -6.69909518      1.81011191      2.48129226
  C     -6.74492630      3.19849972      2.48438049
  C     -6.29924987      3.90593102      1.37679356
  C     -5.80847592      3.23349097      0.26736433
  H     -7.12779351      3.72732114      3.34919823
  H     -6.33731577      4.98926346      1.37453940
  H     -5.46013532      3.79567629     -0.59197891
  H     -3.03625960      4.23389144     -4.11122159
  H     -7.04535264      1.25121465      3.34319951
  H     -6.17179170      0.05029021      1.37713521
