146
Energy =   -192.73399958 au
 Co     -1.08858355     -2.03444990      0.24126960
 Co      1.20276193      1.51539557     -0.78476665
 Co     -1.87265754      0.76644938     -0.72876375
 Co     -0.15590530      0.71191794      1.82569572
 Co      1.83727661     -1.31283572      0.66330592
 Co      0.41325695     -1.02394364     -2.20828467
 Te      2.62282938     -0.36383770     -1.40146846
 Te     -0.67673868      2.57919938      0.32879255
 Te     -0.42780290      1.23381698     -2.58850496
 Te      0.07918892     -1.68232427      2.32568793
 Te     -2.33909442     -0.32349302      1.41831602
 Te     -1.97255858     -1.34471160     -1.92743253
 Te      2.24111684      0.96643344      1.34129551
 Te      0.92148562     -2.96076163     -0.84802247
  P      3.09336982     -2.17370047      2.16993121
  C      4.92183299     -2.02492052      1.71750461
  H      5.19185460     -0.96439771      1.75135733
  H      5.54808755     -2.54621793      2.44653633
  C      5.22880538     -2.56950347      0.32326142
  H      6.28199683     -2.41425387      0.08369788
  H      5.01344600     -3.63729218      0.26599561
  H      4.62348713     -2.05384413     -0.42676959
  C      3.04973151     -4.02383615      2.51564436
  H      2.93822251     -4.52323944      1.54740103
  H      4.00485034     -4.35355641      2.93562350
  C      1.91850840     -4.48489046      3.43190934
  H      1.86553815     -5.57489437      3.43889387
  H      2.07710137     -4.13923146      4.45357391
  H      0.96160427     -4.09048971      3.08638803
  C      3.13777472     -1.45150711      3.89727919
  H      2.17228363     -1.66803303      4.36367152
  H      3.18726136     -0.36315184      3.78503719
  C      4.25691911     -1.90366604      4.83461147
  H      4.08968055     -1.47811560      5.82581213
  H      4.28221656     -2.98915410      4.92970539
  H      5.22938660     -1.56315123      4.47964850
  P     -1.82659634     -3.98347367     -0.27935476
  C     -1.47431621     -5.12461926     -1.72449905
  H     -0.45862656     -5.50768660     -1.59248935
  H     -2.15765350     -5.97777752     -1.66940369
  C     -1.57967029     -4.51418624     -3.11834615
  H     -1.45690816     -5.29314965     -3.87336359
  H     -2.54642951     -4.03304482     -3.26400545
  H     -0.79974724     -3.76617510     -3.26050272
  C     -3.71228854     -4.14567562     -0.26963847
  H     -4.08332234     -3.58638452     -1.13410184
  H     -4.01879237     -5.18679886     -0.40371170
  C     -4.35733791     -3.58502779      0.99539108
  H     -5.44268025     -3.55902405      0.88563786
  H     -4.11133161     -4.19900536      1.86270932
  H     -4.00372537     -2.56786032      1.18580713
  C     -1.34556257     -5.16786154      1.11183534
  H     -1.54760704     -4.65479439      2.05796536
  H     -0.25807812     -5.28346289      1.05341474
  C     -1.98868467     -6.55379469      1.15428194
  H     -1.60210559     -7.10370802      2.01451689
  H     -3.07153386     -6.48495155      1.25491318
  H     -1.75852433     -7.12476052      0.25504427
  P     -3.85908019      1.52559229     -0.42741525
  C     -5.36538375      0.40686960     -0.35619187
  H     -5.25050954     -0.23527160      0.52235603
  H     -6.27322213      0.99956904     -0.20883938
  C     -5.54850376     -0.47159085     -1.59272195
  H     -6.34599735     -1.19612080     -1.41991046
  H     -5.81108987      0.13083554     -2.46310820
  H     -4.62716513     -1.01426047     -1.81760193
  C     -4.41126512      2.67928177     -1.81845205
  H     -4.47855306      2.08705711     -2.73652323
  H     -5.40903242      3.08223461     -1.62524934
  C     -3.42750071      3.82392124     -2.05389984
  H     -3.76909372      4.45101364     -2.87898631
  H     -3.32669835      4.44508502     -1.16309272
  H     -2.44213604      3.42551767     -2.30600330
  C     -4.19430558      2.57418328      1.09052356
  H     -3.32702249      3.22642006      1.22900634
  H     -4.20511667      1.89042909      1.94542949
  C     -5.45910081      3.43121223      1.12285371
  H     -5.54208190      3.90865186      2.10097389
  H     -5.42348638      4.21481238      0.36637689
  H     -6.35475076      2.83149431      0.96087577
  P     -0.11781623      1.78300026      3.69951484
  C     -0.23697328      0.71995844      5.24740660
  H      0.63484727      0.05827787      5.27420113
  H     -0.20169250      1.34097702      6.14672019
  C     -1.50298864     -0.13450030      5.29099270
  H     -1.49865338     -0.76257718      6.18339931
  H     -2.39648072      0.49035562      5.31086060
  H     -1.55255326     -0.78276874      4.41393005
  C     -1.49688904      2.99866907      4.10569942
  H     -2.44198154      2.52141076      3.82592759
  H     -1.54133222      3.18180465      5.18352475
  C     -1.39405198      4.33442126      3.37211527
  H     -2.31259890      4.90742640      3.50876501
  H     -0.55760494      4.92603668      3.74441137
  H     -1.24628998      4.16551293      2.30196170
  C      1.39955859      2.79880849      4.12798836
  H      1.50909972      3.55794882      3.34675398
  H      2.26158120      2.13343392      4.01574824
  C      1.46716094      3.47834597      5.49604642
  H      2.37264797      4.08531552      5.55177373
  H      0.61014894      4.13040343      5.66178915
  H      1.50291657      2.74222009      6.29883048
  P      1.99913957      3.47234907     -1.14826798
  C      1.02443704      4.78134180     -2.07479062
  H      0.05829354      4.88210493     -1.56971663
  H      1.53141088      5.74796561     -2.00155853
  C      0.78246846      4.46804275     -3.54947666
  H      0.12891319      5.22397967     -3.98793420
  H      1.71947526      4.45366472     -4.10705344
  H      0.30181779      3.49222410     -3.65421393
  C      3.64597407      3.61470250     -2.05718745
  H      3.49792205      3.25323912     -3.07968297
  H      3.96773561      4.65707510     -2.13189957
  C      4.74600993      2.77875818     -1.40601717
  H      5.66408529      2.84165884     -1.99239854
  H      4.95571649      3.12465928     -0.39317493
  H      4.43954114      1.73036683     -1.35499619
  C      2.35810545      4.43508791      0.42350068
  H      2.85364711      3.74603055      1.11552459
  H      1.38535258      4.66744647      0.87010767
  C      3.18299814      5.71797696      0.32989967
  H      3.23068331      6.18474093      1.31552229
  H      4.20201293      5.50891324      0.00521690
  H      2.73751003      6.43256288     -0.36218479
  P      1.22419948     -0.82587470     -4.18315348
  C      0.01078498     -0.60857377     -5.60987413
  H     -0.38507237      0.40980093     -5.54984053
  H      0.52607826     -0.71047615     -6.56896680
  C     -1.15808243     -1.59029410     -5.57744194
  H     -1.86275684     -1.35815953     -6.37773176
  H     -0.81042070     -2.61562220     -5.70980268
  H     -1.68481298     -1.52637530     -4.62215999
  C      2.16551491     -2.31556756     -4.86888585
  H      1.43784269     -3.09987199     -5.09976282
  H      2.65771459     -2.04868393     -5.80884475
  C      3.19862849     -2.88375277     -3.89987874
  H      3.71306508     -3.73319576     -4.35231340
  H      3.93855947     -2.12892115     -3.63063252
  H      2.70873508     -3.22219196     -2.98341536
  C      2.44979637      0.53468225     -4.58375069
  H      3.41245705      0.22799701     -4.16542816
  H      2.14501617      1.42675532     -4.02879418
  C      2.64832732      0.91753532     -6.04981080
  H      3.46327910      1.64011326     -6.12303097
  H      2.90742804      0.05020450     -6.65757493
  H      1.74995157      1.37731895     -6.46117229
