146
Energy =   -192.73529833 au
 Co      0.09073600     -1.98667276      0.66836443
 Co     -0.42764927      2.10220872     -0.71180148
 Co     -2.05232901     -0.48512052     -0.86016326
 Co     -1.16348810      0.78069715      1.91667885
 Co      1.77142470      0.51430379      1.13164248
 Co      1.06696263     -0.36457012     -1.77152584
 Te      1.96759915      1.76890923     -0.93169505
 Te     -2.65923676      1.60136689      0.18893939
 Te     -0.93367266      0.69487168     -2.64895233
 Te      0.46483317     -0.80380322      2.75420962
 Te     -2.14338876     -1.37038530      1.42348475
 Te     -0.51449601     -2.17828233     -1.69768118
 Te      0.48466818      2.55696321      1.48057219
 Te      2.37022254     -1.50668290     -0.08171170
  P      2.57745834     -0.07949019     -3.27101225
  C      2.61631946      1.40841197     -4.41603962
  H      2.65422718      2.30046964     -3.78347478
  H      3.53272705      1.39839382     -5.01406111
  C      1.41797240      1.51818248     -5.35737871
  H      1.42568764      2.48852927     -5.85672411
  H      1.44626739      0.73817885     -6.11889087
  H      0.48361738      1.42117516     -4.80014705
  C      2.59849406     -1.45306058     -4.56757329
  H      1.66096113     -1.39606693     -5.12949198
  H      3.41063749     -1.31129411     -5.28545889
  C      2.69615955     -2.84082299     -3.93735431
  H      2.66673282     -3.61046848     -4.71022767
  H      3.62093844     -2.95274501     -3.37012424
  H      1.85493811     -2.99863609     -3.25867056
  C      4.36716989     -0.05282639     -2.70972328
  H      4.45681338     -0.75677189     -1.87598001
  H      4.54361028      0.94388307     -2.29311408
  C      5.45803755     -0.35932741     -3.73508349
  H      6.43549837     -0.18791118     -3.28041834
  H      5.41298526     -1.39911443     -4.05806161
  H      5.37486706      0.28173324     -4.61296713
  P      0.74190369     -4.02754035      0.76972197
  C      1.62298557     -4.93212665     -0.61703133
  H      2.33251099     -4.22555435     -1.05825626
  H      2.21097722     -5.75791240     -0.20613377
  C      0.71698849     -5.48344352     -1.71598488
  H      1.32316836     -5.82941984     -2.55492193
  H      0.12141089     -6.32070094     -1.35154816
  H      0.04193756     -4.70398569     -2.07562071
  C     -0.55885444     -5.32483977      1.20769343
  H     -1.26927563     -5.38187367      0.37748876
  H     -0.10914555     -6.31616852      1.31045557
  C     -1.33046329     -4.97218922      2.47778710
  H     -2.13600912     -5.69013658      2.64011292
  H     -0.67680539     -4.98072013      3.35067245
  H     -1.76912921     -3.97440348      2.38711548
  C      1.99257219     -4.29754202      2.14820015
  H      1.64911399     -3.71913503      3.01147634
  H      2.92187200     -3.82551741      1.81260558
  C      2.29430570     -5.72434271      2.60559066
  H      3.10058919     -5.70120898      3.34109381
  H      1.42277807     -6.18107358      3.07368650
  H      2.61159627     -6.35445293      1.77466526
  P      3.26574868      0.47649318      2.67610893
  C      4.83522337      1.40790924      2.17584257
  H      4.60059517      2.47593881      2.12286883
  H      5.61849227      1.28200817      2.92826214
  C      5.37036266      0.95521105      0.81921843
  H      6.27787209      1.50598146      0.56690691
  H      5.59977605     -0.11127456      0.82495396
  H      4.62380423      1.14319226      0.04502953
  C      4.07223523     -1.11292147      3.27199844
  H      4.05547077     -1.80536394      2.42371653
  H      5.12441180     -0.93318801      3.51234641
  C      3.40391419     -1.78902128      4.46812386
  H      3.79939282     -2.79884059      4.58988529
  H      3.58778685     -1.23458756      5.38829256
  H      2.32529678     -1.85245101      4.31469367
  C      2.89640868      1.36758268      4.28342582
  H      2.16161171      0.76637167      4.82697980
  H      2.39102809      2.30167261      4.01603169
  C      4.06724896      1.69305256      5.21139071
  H      3.68269962      2.08538199      6.15465172
  H      4.66426804      0.80745246      5.42788394
  H      4.71686063      2.44842335      4.76971539
  P     -1.54719459      3.55961092     -1.82616676
  C     -3.15835402      3.28509218     -2.74926969
  H     -3.64253892      2.41748086     -2.29243886
  H     -3.82510187      4.13601661     -2.58396839
  C     -3.04162099      3.04212755     -4.25273354
  H     -4.01073219      2.73154660     -4.64743498
  H     -2.72973666      3.94454266     -4.77840441
  H     -2.31895669      2.24982159     -4.45166530
  C     -0.54479558      4.47094925     -3.14394819
  H     -0.31159835      3.75766764     -3.93950724
  H     -1.12664468      5.27932172     -3.59434600
  C      0.76678866      5.02979558     -2.59612651
  H      1.36175275      5.45354873     -3.40681211
  H      0.58405596      5.80980736     -1.85617325
  H      1.34695955      4.23424021     -2.12019747
  C     -2.06059622      5.00617128     -0.72111679
  H     -1.23139541      5.20631889     -0.03484895
  H     -2.88614264      4.63553033     -0.10481550
  C     -2.47803840      6.31871317     -1.38333048
  H     -2.85976735      7.00135698     -0.62177731
  H     -1.63166004      6.79849001     -1.87403519
  H     -3.26337416      6.16166779     -2.12296233
  P     -1.77072578      2.06680155      3.52569973
  C     -3.15112472      1.29949949      4.56682414
  H     -2.73409755      0.44905380      5.11597648
  H     -3.51975126      2.01597442      5.30609265
  C     -4.32620722      0.81042666      3.72245154
  H     -5.10078824      0.38765964      4.36436533
  H     -4.76002990      1.62830401      3.14552186
  H     -3.99193075      0.03698577      3.02749331
  C     -2.56586592      3.74063382      3.21638389
  H     -3.14394948      3.64209962      2.29132283
  H     -3.27880586      3.96911751      4.01452343
  C     -1.60402829      4.91773049      3.06528390
  H     -2.14561956      5.79167234      2.69928394
  H     -1.14089177      5.17340796      4.01837232
  H     -0.81210863      4.67465360      2.35513584
  C     -0.54949148      2.45291978      4.89481451
  H      0.21340880      3.11153951      4.46928418
  H     -0.04195534      1.51437516      5.14166316
  C     -1.08591349      3.07288323      6.18543115
  H     -0.24839079      3.34986907      6.82839406
  H     -1.67234912      3.96896585      5.98375153
  H     -1.71105952      2.36496060      6.72916446
  P     -3.66288183     -1.81613632     -1.33587084
  C     -3.89742689     -2.23146107     -3.15874846
  H     -3.05793526     -2.86396615     -3.46420626
  H     -4.81617420     -2.80655523     -3.30376020
  C     -3.94259183     -1.00221411     -4.06401120
  H     -4.01550726     -1.31028521     -5.10828778
  H     -4.80182688     -0.37308645     -3.82779088
  H     -3.03593422     -0.40516710     -3.94070998
  C     -5.42924995     -1.26912745     -0.96096749
  H     -5.69694951     -0.47771987     -1.66809406
  H     -6.12642812     -2.09553884     -1.12767138
  C     -5.60978583     -0.73109684      0.45571446
  H     -6.65038947     -0.44851179      0.62337374
  H     -5.32608573     -1.47866707      1.19746712
  H     -4.98323533      0.15234893      0.60072103
  C     -3.69013067     -3.54147698     -0.60569650
  H     -3.96725438     -3.43710039      0.44714517
  H     -2.66084744     -3.91211540     -0.61754486
  C     -4.59192105     -4.59122740     -1.25428764
  H     -4.57791666     -5.49837518     -0.64730799
  H     -5.62344984     -4.24534632     -1.32412986
  H     -4.24093997     -4.84702496     -2.25382889
