146
Energy =   -192.68730739 au
 Co      0.93881793     -2.21495229      0.05954257
 Co     -0.26608236      2.16716941      0.15235850
 Co     -1.67377505     -0.90220181     -0.44846202
 Co      0.39179578     -0.00539912      2.15880772
 Co      1.31769983      0.33446728     -0.16585990
 Co      0.47298315     -0.05001863     -2.40176121
 Te      1.21587725      2.17990192     -1.74790151
 Te     -1.83616925      0.73419974      1.36572677
 Te     -1.53444988      1.21795658     -1.73531227
 Te      2.55003844     -0.97521965      1.43444953
 Te     -0.91445223     -1.99726406      1.61909963
 Te     -0.36938353     -2.29172190     -1.97807605
 Te      1.69518541      1.98017588      1.57159255
 Te      2.45406195     -1.27063876     -1.57437932
  P      1.19367558     -4.24481473      0.71645021
  C      2.63530973     -5.16432471     -0.08041827
  H      3.56687560     -4.69475458      0.25177477
  H      2.66336829     -6.20882440      0.24224833
  C      2.57737134     -5.11856530     -1.60725463
  H      3.44573780     -5.62535433     -2.03148650
  H      1.67510503     -5.60709602     -1.97760592
  H      2.57637921     -4.08281845     -1.95498571
  C     -0.14603225     -5.52763118      0.40055037
  H     -0.54288713     -5.32858703     -0.60072135
  H      0.28563677     -6.53290672      0.37640511
  C     -1.30702514     -5.51177451      1.39348765
  H     -2.11945443     -6.14112773      1.02612552
  H     -0.99519684     -5.88588797      2.36882214
  H     -1.68431109     -4.49572070      1.52482042
  C      1.58738745     -4.53091680      2.52620859
  H      0.70523762     -4.22605255      3.09830903
  H      2.38223177     -3.82536628      2.79146986
  C      2.00614974     -5.93493700      2.96244815
  H      2.10458548     -5.96236796      4.04921620
  H      1.26739681     -6.67993537      2.66755650
  H      2.96720173     -6.20902251      2.52772079
  P      3.56017273      2.70875039     -0.57567293
  C      4.47769129      2.95554779     -2.21894971
  H      3.90531799      3.67302844     -2.81475322
  H      5.48040065      3.36743534     -2.07690220
  C      4.59178445      1.64854958     -3.00426307
  H      5.06951537      1.82761116     -3.96888782
  H      5.18228313      0.91320062     -2.45634728
  H      3.60301328      1.22313495     -3.18065044
  C      4.93675245      1.75990468      0.31690163
  H      4.61543944      0.71005995      0.31807084
  H      5.86375732      1.81683160     -0.25877011
  C      5.21260151      2.16809410      1.75996402
  H      5.89737609      1.45134831      2.21679353
  H      5.66185874      3.15947729      1.81523432
  H      4.28427310      2.17095055      2.33336556
  C      3.65363581      4.45467938      0.08995391
  H      3.50683118      4.39387130      1.17033155
  H      2.78342287      4.98285901     -0.31158106
  C      4.91024531      5.27406430     -0.20604888
  H      4.86983502      6.20891487      0.35602803
  H      5.81232953      4.73742588      0.08729931
  H      4.97925387      5.51828285     -1.26561965
  P     -3.62804732     -1.81691710     -0.69578758
  C     -3.89605665     -3.62626419     -1.12900770
  H     -3.34714356     -4.22819337     -0.39785870
  H     -4.95319875     -3.89096729     -1.03340033
  C     -3.41854974     -4.00200593     -2.52944209
  H     -3.49493863     -5.08065740     -2.67577745
  H     -4.01482545     -3.50325366     -3.29419832
  H     -2.37311228     -3.70744442     -2.65973213
  C     -4.93436704     -1.05747328     -1.81500257
  H     -4.61396686     -1.19105982     -2.85231066
  H     -5.88785144     -1.58347743     -1.71128745
  C     -5.14078135      0.43447241     -1.55994583
  H     -5.86469383      0.84000941     -2.26873077
  H     -5.50684125      0.61379075     -0.54835461
  H     -4.19639816      0.97192279     -1.68461623
  C     -4.51683199     -1.78617337      0.96247149
  H     -4.40411059     -0.77424284      1.36747698
  H     -3.94302989     -2.43874426      1.63013947
  C     -5.99182767     -2.18221937      1.02500613
  H     -6.32627043     -2.15640890      2.06383984
  H     -6.61104673     -1.49126634      0.45347489
  H     -6.15177850     -3.19019874      0.64245975
  P      0.29994466     -0.17754081      4.30965944
  C     -1.31060302     -0.73755665      5.09732760
  H     -1.59504828     -1.68052948      4.61807183
  H     -1.17309353     -0.94173511      6.16320134
  C     -2.45538368      0.26079802      4.93118376
  H     -3.38252773     -0.16661932      5.31700185
  H     -2.24950872      1.18616427      5.47026031
  H     -2.59814143      0.50271122      3.87439960
  C      0.69506093      1.26875841      5.44377513
  H     -0.00767596      2.07460775      5.20716022
  H      0.53297135      1.00203370      6.49223454
  C      2.11552981      1.79969806      5.26117246
  H      2.26443446      2.69304265      5.86986731
  H      2.85572984      1.05359663      5.55197258
  H      2.28393955      2.06220822      4.21305018
  C      1.43769979     -1.51256406      4.98162973
  H      2.42836374     -1.34243363      4.54669590
  H      1.08295605     -2.45933818      4.56019599
  C      1.57823257     -1.67439176      6.49553321
  H      2.24163147     -2.51501022      6.70735243
  H      2.00621484     -0.78149037      6.95027565
  H      0.61542714     -1.87542384      6.96507701
  P     -1.18157638      4.02166278      0.81871421
  C     -2.57896227      4.71880869     -0.22967903
  H     -3.41865180      4.01717867     -0.19057104
  H     -2.93428230      5.67289620      0.16991188
  C     -2.16946528      4.91368166     -1.68984865
  H     -3.01008780      5.30440060     -2.26579103
  H     -1.33720108      5.61392536     -1.77246514
  H     -1.86618905      3.95905323     -2.12606600
  C     -0.15187871      5.59027861      0.99702772
  H      0.43502604      5.70148523      0.07914819
  H     -0.78751858      6.47719223      1.07531137
  C      0.80709692      5.54641360      2.18634170
  H      1.53675787      6.35444606      2.11266120
  H      0.26897987      5.65234151      3.12835513
  H      1.34370108      4.59440214      2.20668939
  C     -2.03587411      3.97447908      2.48817467
  H     -1.28876346      3.66974527      3.22910005
  H     -2.76104687      3.15521032      2.44282802
  C     -2.74515486      5.23466873      2.98454092
  H     -3.15057429      5.05033963      3.98115823
  H     -2.06138591      6.08074919      3.04768447
  H     -3.57105761      5.50550637      2.32702682
  P      0.33581620     -0.21075576     -4.54557631
  C     -1.33438166     -0.04054214     -5.38444369
  H     -1.67087884      0.99413013     -5.26216217
  H     -1.25295706     -0.23380358     -6.45797716
  C     -2.39172020     -0.96959808     -4.79172788
  H     -3.34777403     -0.82347998     -5.29721034
  H     -2.09834894     -2.01434901     -4.89613333
  H     -2.52272178     -0.75407336     -3.73084740
  C      0.91700132     -1.79046210     -5.37387702
  H      0.35949294     -2.61333100     -4.91421488
  H      0.67461307     -1.79095903     -6.44075244
  C      2.41082827     -2.05520780     -5.19193222
  H      2.66307215     -3.04942283     -5.56434058
  H      3.00796072     -1.32074795     -5.73343447
  H      2.68011900     -2.00319415     -4.13325242
  C      1.29753610      1.09142707     -5.50480677
  H      2.34618593      1.00896756     -5.20072444
  H      0.95587123      2.06834012     -5.14546260
  C      1.22601879      1.07106622     -7.03225531
  H      1.87150076      1.85362614     -7.43535297
  H      1.56201515      0.11418316     -7.43115509
  H      0.21016561      1.25532012     -7.38118199
