146
Energy =   -192.73501846 au
 Co      1.77695573     -1.45215790      0.27739748
 Co     -1.44249383      1.64299963     -0.01189052
 Co     -1.32626087     -1.65031105     -0.03873931
 Co     -0.09254528      0.02404579      2.20080355
 Co      1.62045445      1.57709743     -0.09012419
 Co      0.07559120     -0.03984899     -2.17578529
 Te      0.04345985      2.35723069     -1.78742274
 Te     -2.42192667     -0.05731573      1.42271813
 Te     -2.29850099     -0.00672354     -1.54778437
 Te      2.29081196      0.34518965      1.89083976
 Te      0.11336826     -2.37358710      1.78074363
 Te      0.48019014     -2.35647302     -1.54306926
 Te      0.19041917      2.38000768      1.68847388
 Te      2.43841659     -0.12967437     -1.65602575
  P     -2.31197490      3.54540446      0.50233969
  C     -2.94365285      3.94413880      2.22499755
  H     -2.09036554      3.87945637      2.90657109
  H     -3.31446783      4.97265582      2.26638396
  C     -4.04453230      3.00586223      2.71726187
  H     -4.24716061      3.19130583      3.77340708
  H     -4.96723373      3.15925811      2.15654248
  H     -3.74171647      1.96313216      2.59864335
  C     -3.88369182      3.91860346     -0.47915018
  H     -4.63205257      3.16720042     -0.20823757
  H     -4.29954117      4.89423569     -0.21385336
  C     -3.64970804      3.84458045     -1.98645268
  H     -4.58865115      3.98788995     -2.52349954
  H     -2.94251741      4.60768267     -2.31326475
  H     -3.24349755      2.86637626     -2.25114428
  C     -1.29830279      5.09194642      0.18635016
  H     -0.76885655      4.94227853     -0.76023854
  H     -0.52975102      5.12474629      0.96519667
  C     -2.01706292      6.43975524      0.14030192
  H     -1.27804227      7.23622053      0.03526251
  H     -2.69691543      6.49556841     -0.70947560
  H     -2.58521769      6.62218166      1.05252800
  P      2.98284514      2.89019495     -1.10559014
  C      3.23261986      3.04316303     -2.95936388
  H      2.27081384      2.81888629     -3.43015385
  H      3.46992270      4.08114182     -3.21007808
  C      4.30284356      2.14122968     -3.57067905
  H      4.25340782      2.20180072     -4.65935590
  H      5.30171698      2.44126342     -3.25406383
  H      4.13658272      1.10460124     -3.27342748
  C      4.78504571      2.82644232     -0.54443440
  H      5.19647485      1.86279841     -0.85895614
  H      5.37656711      3.60464879     -1.03438052
  C      4.93741685      2.94358941      0.97081869
  H      5.98187957      2.80390789      1.25439711
  H      4.60975750      3.92122543      1.32600528
  H      4.33708560      2.17897745      1.47138293
  C      2.54352878      4.68656836     -0.71571985
  H      2.21494769      4.72595591      0.32841646
  H      1.66035599      4.91624908     -1.32113061
  C      3.59958667      5.76775958     -0.94269360
  H      3.14897769      6.74994782     -0.78787499
  H      4.42845264      5.66185305     -0.24344808
  H      3.99631906      5.73265521     -1.95751339
  P      3.53743156     -2.30370010      1.17882524
  C      5.22275518     -1.47913853      1.10099863
  H      5.14010892     -0.52180778      1.62407286
  H      5.96549214     -2.07851127      1.63609732
  C      5.72686250     -1.22690569     -0.31915614
  H      6.62393377     -0.60613503     -0.29126313
  H      5.97178992     -2.16503823     -0.81836566
  H      4.96616480     -0.71356566     -0.91138377
  C      4.00425761     -3.98223989      0.44515294
  H      4.27914648     -3.82364886     -0.60238082
  H      4.87964350     -4.40631623      0.94421038
  C      2.84563424     -4.97590262      0.49414527
  H      3.12907829     -5.91251491      0.01137093
  H      2.55350516     -5.18974807      1.52289762
  H      1.98060741     -4.56337054     -0.02910854
  C      3.48180626     -2.69707761      3.01214234
  H      2.48093241     -3.08483588      3.22760422
  H      3.55961755     -1.74001015      3.53790170
  C      4.51677921     -3.66466307      3.58466206
  H      4.40285378     -3.70969244      4.66936122
  H      4.37745584     -4.67019091      3.18845166
  H      5.53397115     -3.34140257      3.36335990
  P     -0.65601217      0.04147482     -4.19019228
  C     -1.75271568      1.44584527     -4.78517636
  H     -1.52762114      2.30781632     -4.14824687
  H     -1.48102067      1.72843269     -5.80618143
  C     -3.25606845      1.17782816     -4.74209995
  H     -3.80046377      2.10681654     -4.91996081
  H     -3.54904038      0.45580128     -5.50461570
  H     -3.54393152      0.78815137     -3.76417507
  C     -1.52174647     -1.41835404     -4.99390723
  H     -2.43822412     -1.60757884     -4.42695284
  H     -1.82116656     -1.16971736     -6.01624783
  C     -0.68836759     -2.69869912     -5.00987300
  H     -1.29087763     -3.53026984     -5.37909222
  H      0.18615979     -2.59268645     -5.65226797
  H     -0.34271607     -2.93990547     -4.00196886
  C      0.81457079      0.29778737     -5.35137559
  H      1.59194526     -0.41443928     -5.05537397
  H      1.21438455      1.29294821     -5.12681024
  C      0.59022421      0.18532235     -6.85970835
  H      1.51759970      0.43044149     -7.38070364
  H      0.30028753     -0.82652406     -7.14090784
  H     -0.18279495      0.87329878     -7.20197970
  P     -2.19139042     -3.59767975     -0.26426935
  C     -1.21252648     -5.18473012     -0.04940835
  H     -0.43730898     -4.97778280      0.69545691
  H     -1.85363595     -5.96569396      0.36957839
  C     -0.55378280     -5.72840913     -1.31572075
  H      0.13066583     -6.53798776     -1.05660180
  H     -1.29890254     -6.11585439     -2.01093024
  H      0.01369752     -4.94090109     -1.81504926
  C     -3.17829386     -4.03397722     -1.80467128
  H     -2.49078200     -4.00679105     -2.65566109
  H     -3.56694716     -5.05427537     -1.73869350
  C     -4.32777330     -3.06663503     -2.08169447
  H     -4.79343230     -3.30438574     -3.03953520
  H     -5.08848955     -3.12370087     -1.30259495
  H     -3.95621526     -2.03941369     -2.12173297
  C     -3.47123293     -3.85838627      1.09746695
  H     -4.05780838     -2.93702870      1.17683389
  H     -2.90735244     -3.94036273      2.03321869
  C     -4.42776180     -5.04644597      0.99332368
  H     -5.04130053     -5.09375368      1.89494420
  H     -5.09232413     -4.94399152      0.13606884
  H     -3.88752441     -5.98865951      0.90096293
  P     -0.84399314     -0.56537388      4.12133424
  C     -2.11213759     -1.90519579      4.46220116
  H     -1.95411995     -2.69029250      3.71663486
  H     -1.91354679     -2.35501019      5.43944465
  C     -3.57511580     -1.46849041      4.42049711
  H     -4.22148506     -2.34660265      4.46945334
  H     -3.81607608     -0.81524262      5.25932098
  H     -3.78362895     -0.93605334      3.49085919
  C     -1.53010864      0.80345953      5.22459401
  H     -2.44983400      1.17197337      4.76035791
  H     -1.80098087      0.41394394      6.20978228
  C     -0.56732239      1.97853718      5.38372408
  H     -1.04693247      2.78252879      5.94436011
  H      0.33768279      1.67876322      5.91305966
  H     -0.27780706      2.36525777      4.40289182
  C      0.57126819     -1.22519501      5.18256113
  H      1.45478723     -0.61446787      4.96775798
  H      0.79271627     -2.22620353      4.79733319
  C      0.38159299     -1.30487886      6.69693472
  H      1.24698194     -1.79905970      7.14247704
  H      0.29558530     -0.31162894      7.13642155
  H     -0.50831572     -1.87738034      6.95903596
