146
Energy =   -192.73187170 au
 Co      0.63441222     -2.13300455      0.13692754
 Co     -0.39797303      2.02753109     -0.57336035
 Co     -2.05408981     -0.71527362     -0.11727195
 Co     -0.16510427      0.48463068      2.00724615
 Co      2.26062607      0.42833105      0.05018246
 Co      0.21877289     -0.36522818     -2.32970219
 Te      1.58614874      1.61614613     -1.93601238
 Te     -2.17914819      1.44327784      0.96942142
 Te     -1.92202311      0.77490392     -2.00179966
 Te      1.77047759     -1.01843847      1.96383328
 Te     -1.05256657     -1.79449735      1.84295947
 Te     -1.03819762     -2.31068287     -1.63473530
 Te      1.26007801      2.29441603      1.18973671
 Te      2.26350495     -1.38008897     -1.55542425
  P      4.23353168      0.45477403      0.87886795
  C      5.38467105      1.59745339     -0.09262102
  H      5.04950477      2.62894416      0.05694033
  H      6.40833013      1.52846892      0.28551443
  C      5.38742908      1.29200998     -1.58977661
  H      6.04766125      1.98562778     -2.11291793
  H      5.73136174      0.27429804     -1.77971712
  H      4.37939931      1.39791901     -1.99873641
  C      5.31438590     -1.08420772      0.87964794
  H      5.05607844     -1.64771786     -0.02347617
  H      6.36783800     -0.80286983      0.78785875
  C      5.15373557     -2.00438273      2.08834383
  H      5.68048002     -2.94351837      1.91093075
  H      5.56055153     -1.54553528      2.98940257
  H      4.09913884     -2.22248869      2.26349884
  C      4.49478483      1.13719423      2.60252628
  H      4.04487603      0.42883178      3.30474916
  H      3.90059948      2.05418837      2.67109410
  C      5.92683390      1.44496216      3.04013459
  H      5.93226045      1.70844762      4.09932576
  H      6.58171013      0.58540755      2.89895535
  H      6.33402015      2.28600747      2.47924299
  P     -0.09815782      0.20468546     -4.36913152
  C     -1.55734693     -0.49566183     -5.32880109
  H     -2.46481059     -0.05720037     -4.90187773
  H     -1.50495894     -0.18367418     -6.37628153
  C     -1.67308960     -2.01709818     -5.27251988
  H     -2.58846366     -2.34076753     -5.77071342
  H     -0.82422199     -2.49263857     -5.76531914
  H     -1.70300398     -2.35826626     -4.23462433
  C      1.28727009     -0.35064630     -5.52894612
  H      1.29798900     -1.44538818     -5.52935753
  H      1.08290394     -0.03548457     -6.55560045
  C      2.66743646      0.14419540     -5.10364410
  H      3.42159762     -0.18067560     -5.82242034
  H      2.69204552      1.23259735     -5.03821992
  H      2.92555712     -0.26193587     -4.12314080
  C     -0.31613319      2.00682632     -4.84079983
  H      0.35372453      2.59934115     -4.21047574
  H     -1.33559871      2.28295401     -4.55525189
  C     -0.09100659      2.40100480     -6.29984829
  H     -0.35901979      3.45104097     -6.43120712
  H      0.95446333      2.28118422     -6.58310592
  H     -0.70593080      1.80659301     -6.97586287
  P     -0.79034387      4.12125063     -0.38275813
  C     -2.41404208      4.75987968     -1.10259863
  H     -3.23058171      4.34930602     -0.49978739
  H     -2.46144747      5.84934021     -1.02249300
  C     -2.63507945      4.36724770     -2.56135825
  H     -3.60798635      4.72503609     -2.90212502
  H     -1.86386872      4.79435507     -3.20379436
  H     -2.60967091      3.27982174     -2.66754105
  C      0.36634314      5.38129098     -1.17006590
  H      0.23044258      5.33211861     -2.25514793
  H      0.08430988      6.39168479     -0.85898283
  C      1.84264786      5.15153939     -0.85849880
  H      2.44914961      5.93785200     -1.31112283
  H      2.02065242      5.14487129      0.21730946
  H      2.16445630      4.18913452     -1.26329801
  C     -0.92543463      4.82444635      1.35164379
  H      0.09101593      4.87566469      1.75203635
  H     -1.45623041      4.08364946      1.95809086
  C     -1.60155720      6.18241487      1.53718904
  H     -1.49462726      6.49518720      2.57755250
  H     -1.14727372      6.94572253      0.90504386
  H     -2.66566494      6.12730396      1.30829376
  P      1.32356890     -4.04327873     -0.56407721
  C      1.90462409     -4.63369605     -2.24654353
  H      2.87677391     -4.16877709     -2.43290459
  H      2.06203736     -5.71575722     -2.19818197
  C      0.99419182     -4.33624063     -3.43370899
  H      1.38353633     -4.82510684     -4.32893141
  H     -0.01878822     -4.69342779     -3.25081994
  H      0.95003527     -3.26278712     -3.61553514
  C      0.16977022     -5.48713578     -0.16247178
  H     -0.71822220     -5.36915690     -0.79096088
  H      0.62984059     -6.44223448     -0.43070124
  C     -0.26197777     -5.52462306      1.30135148
  H     -1.04210903     -6.27389446      1.44496904
  H      0.57958773     -5.77165924      1.94973891
  H     -0.65556425     -4.55159598      1.60814764
  C      2.86741666     -4.51808360      0.41685141
  H      2.67199796     -4.27088081      1.46550909
  H      3.66064803     -3.83984403      0.08535796
  C      3.38306986     -5.95481396      0.33704028
  H      4.27530765     -6.05133899      0.95872542
  H      2.63890941     -6.66331483      0.69988258
  H      3.65069547     -6.22393581     -0.68447185
  P     -3.82742143     -1.67703236      0.61736361
  C     -3.99890629     -3.53516965      0.81140298
  H     -3.21316469     -3.86181343      1.49926020
  H     -4.95825257     -3.77925083      1.27768417
  C     -3.87559178     -4.32020963     -0.49357417
  H     -3.81798097     -5.38886572     -0.28020031
  H     -4.73669526     -4.14221185     -1.13858047
  H     -2.97391546     -4.02326099     -1.03451875
  C     -5.33855769     -1.34451813     -0.46566784
  H     -5.16025292     -1.81023890     -1.44001900
  H     -6.23523193     -1.81048024     -0.04817562
  C     -5.58287220      0.14793088     -0.68234785
  H     -6.43403803      0.29694215     -1.34869932
  H     -5.78812861      0.65405242      0.26172435
  H     -4.70265273      0.61094414     -1.13550164
  C     -4.44681497     -1.13862107      2.30393590
  H     -4.29536724     -0.05678314      2.37116146
  H     -3.77259081     -1.59100278      3.03851795
  C     -5.89037683     -1.45594356      2.69250850
  H     -6.05752418     -1.15199405      3.72749566
  H     -6.59587415     -0.91438972      2.06289971
  H     -6.10162534     -2.52239450      2.61357487
  P     -0.54222065      0.98610497      4.07641507
  C     -2.28310311      0.96599451      4.78459877
  H     -2.75427479      0.02671732      4.47784602
  H     -2.24963972      0.96403515      5.87790262
  C     -3.15766653      2.13078930      4.32550784
  H     -4.18569214      1.98021607      4.65906164
  H     -2.79554404      3.07614205      4.73057706
  H     -3.15394715      2.19751402      3.23423432
  C      0.05805533      2.57807315      4.87359243
  H     -0.43166464      3.41209636      4.36054113
  H     -0.25172589      2.62302030      5.92186077
  C      1.56864300      2.77721193      4.77652409
  H      1.85019763      3.73474398      5.21753172
  H      2.10835904      1.98338479      5.29364014
  H      1.87307426      2.77742853      3.72683087
  C      0.23756451     -0.31557205      5.18669921
  H      1.27247905     -0.44445242      4.85171777
  H     -0.26981227     -1.25903102      4.95446804
  C      0.22829064     -0.10468226      6.70069858
  H      0.69230346     -0.96566872      7.18540303
  H      0.79176178      0.78544251      6.97891887
  H     -0.78694497     -0.00661975      7.08472103
