146
Energy =   -192.68729973 au
 Co      0.96525207     -2.20006911      0.06809247
 Co     -0.28422900      2.16593829      0.12853022
 Co     -1.65488333     -0.91993380     -0.46048104
 Co      0.38528874      0.01889008      2.15111804
 Co      1.32610174      0.35186928     -0.16987597
 Co      0.49467424     -0.05593388     -2.40649577
 Te      1.20764846      2.18783723     -1.76239558
 Te     -1.84731281      0.72582935      1.34095826
 Te     -1.52871066      1.19500592     -1.76360732
 Te      2.55423345     -0.93950268      1.44804583
 Te     -0.89543270     -1.99305929      1.61935719
 Te     -0.33000814     -2.30319797     -1.97518734
 Te      1.67268710      2.01425449      1.55743256
 Te      2.48365489     -1.25101448     -1.56257444
  P      0.28828120     -0.13884419      4.30298737
  C     -1.31895389     -0.70675717      5.09208421
  H     -1.59371496     -1.65656544      4.62072803
  H     -1.18184856     -0.90024368      6.16001346
  C     -2.47271600      0.27923959      4.91481032
  H     -3.39579232     -0.15158949      5.30655855
  H     -2.27476118      1.21298580      5.44229557
  H     -2.61842192      0.50679641      3.85538081
  C      0.67014151      1.31811332      5.42805749
  H     -0.03635104      2.11796456      5.18224864
  H      0.50519569      1.05861505      6.47787752
  C      2.08804410      1.85641842      5.24709744
  H      2.23005364      2.75329703      5.85224839
  H      2.83178139      1.11600222      5.54332630
  H      2.25784929      2.11520260      4.19824511
  C      1.43449601     -1.46101485      4.98606030
  H      2.42350760     -1.28951390      4.54790221
  H      1.08464947     -2.41397575      4.57435468
  C      1.57819805     -1.60653624      6.50132569
  H      2.24411000     -2.44314383      6.72097497
  H      2.00486524     -0.70772539      6.94555364
  H      0.61679529     -1.80469370      6.97495514
  P     -1.23582680      3.98595126      0.83507254
  C     -2.76011066      4.58819249     -0.08709060
  H     -3.54761901      3.83616352      0.02800478
  H     -3.13697719      5.52095706      0.34199910
  C     -2.49568310      4.79981004     -1.57807946
  H     -3.40773664      5.13275526     -2.07642696
  H     -1.72075784      5.55132326     -1.73472782
  H     -2.17166525      3.86392860     -2.03963984
  C     -0.27307591      5.60635636      0.89126495
  H      0.23834848      5.71556154     -0.07082096
  H     -0.94205477      6.46575333      0.99388739
  C      0.77217697      5.63975160      2.00615214
  H      1.47154910      6.46149030      1.84401981
  H      0.30230348      5.77463752      2.98035483
  H      1.33465249      4.70300408      2.02843534
  C     -1.92579443      3.93359941      2.57881150
  H     -1.09623400      3.68958341      3.25139438
  H     -2.60544392      3.07618037      2.61913676
  C     -2.65734782      5.16449624      3.11456325
  H     -2.94154621      4.98938394      4.15386811
  H     -2.02768442      6.05312631      3.08010060
  H     -3.56455649      5.36110389      2.54347270
  P      1.22985289     -4.22776433      0.72916139
  C      2.68897799     -5.13940374     -0.04503779
  H      3.61277759     -4.66736039      0.30490000
  H      2.71514129     -6.18452502      0.27592323
  C      2.65883839     -5.09086435     -1.57254995
  H      3.53338803     -5.59938321     -1.98179055
  H      1.76210828     -5.57611345     -1.96028297
  H      2.66703288     -4.05447764     -1.91829217
  C     -0.09803618     -5.51718519      0.39128823
  H     -0.48062893     -5.31836619     -0.61559195
  H      0.33867872     -6.52040078      0.37223545
  C     -1.27400327     -5.50813620      1.36654792
  H     -2.07639137     -6.14358802      0.98774872
  H     -0.97448466     -5.87901497      2.34696451
  H     -1.66009401     -4.49457146      1.49105232
  C      1.59795687     -4.51515915      2.54436405
  H      0.70656516     -4.21411740      3.10400971
  H      2.38659628     -3.80780896      2.82299385
  C      2.01489927     -5.91898296      2.98355159
  H      2.08733029     -5.95182283      4.07220564
  H      1.28837441     -6.66718069      2.66715969
  H      2.98784108     -6.18479654      2.57060567
  P     -3.60558880     -1.84384667     -0.70790313
  C     -3.86827953     -3.65091396     -1.15407851
  H     -3.32301910     -4.25667639     -0.42338445
  H     -4.92556094     -3.91798796     -1.06695780
  C     -3.38106948     -4.01672899     -2.55376838
  H     -3.45648838     -5.09431335     -2.70833547
  H     -3.97229519     -3.51257407     -3.31892110
  H     -2.33478129     -3.72125081     -2.67475018
  C     -4.91776689     -1.08093769     -1.81807275
  H     -4.59903796     -1.20396507     -2.85727511
  H     -5.86854895     -1.61229932     -1.71668136
  C     -5.13095942      0.40773279     -1.54974327
  H     -5.86100486      0.81519714     -2.25108525
  H     -5.49204463      0.57702292     -0.53464483
  H     -4.19021236      0.95099965     -1.67571654
  C     -4.49070250     -1.82856422      0.95234560
  H     -4.38657847     -0.81724853      1.36115604
  H     -3.90889706     -2.47822696      1.61589269
  C     -5.96162687     -2.23902784      1.01731924
  H     -6.29315066     -2.22070022      2.05725799
  H     -6.58915579     -1.55173706      0.45043715
  H     -6.11299278     -3.24695828      0.63119244
  P      3.54751697      2.73392301     -0.59157872
  C      4.47466359      2.95988028     -2.23202607
  H      3.90892425      3.67220317     -2.84020201
  H      5.47744398      3.37066151     -2.08706613
  C      4.59118005      1.64390737     -3.00179077
  H      5.09106641      1.80806446     -3.95780093
  H      5.16148615      0.90740585     -2.43432358
  H      3.60178095      1.22744403     -3.19462081
  C      4.91917829      1.79810046      0.32134064
  H      4.59589601      0.74890564      0.34062215
  H      5.84810263      1.84293377     -0.25225896
  C      5.19072023      2.23179232      1.75774940
  H      5.87569668      1.52431248      2.22850198
  H      5.63816226      3.22477717      1.79705467
  H      4.26090341      2.24274905      2.32865899
  C      3.63729826      4.48801004      0.05264097
  H      3.49256311      4.43936844      1.13389571
  H      2.76541174      5.00927130     -0.35404194
  C      4.89156145      5.30716963     -0.25422590
  H      4.84872102      6.24868662      0.29644473
  H      5.79539315      4.77682305      0.04511348
  H      4.95915576      5.53868713     -1.31674400
  P      0.36514735     -0.22590398     -4.54971947
  C     -1.30462529     -0.07677682     -5.39336700
  H     -1.65316709      0.95415157     -5.27313335
  H     -1.21747775     -0.27004363     -6.46645249
  C     -2.35368754     -1.01713998     -4.80378671
  H     -3.30980403     -0.88065712     -5.31185903
  H     -2.04900526     -2.05862425     -4.90822524
  H     -2.49020360     -0.80386870     -3.74313260
  C      0.96835429     -1.80032683     -5.37189725
  H      0.41744705     -2.62869165     -4.91414133
  H      0.73259609     -1.80532087     -6.44023067
  C      2.46397456     -2.04739611     -5.17994218
  H      2.73076072     -3.03815610     -5.55139690
  H      3.05598116     -1.30526959     -5.71661922
  H      2.72527035     -1.99298888     -4.11937101
  C      1.31330945      1.08618050     -5.50901884
  H      2.36157451      1.01918199     -5.19996579
  H      0.95655199      2.05933188     -5.15413910
  C      1.24960173      1.06034085     -7.03668455
  H      1.88104494      1.85485579     -7.43864253
  H      1.60712525      0.10941438     -7.43108907
  H      0.23204279      1.22294009     -7.39130443
