146
Energy =   -192.73144519 au
 Co      1.77195558     -1.27154896     -0.00280413
 Co     -1.91005781      1.11721792     -0.07795593
 Co     -1.44582673     -1.91527839     -0.00287234
 Co     -0.14165784     -0.21790815      2.16573850
 Co      1.05170196      1.70733015     -0.20800723
 Co     -0.04428115     -0.40376044     -2.28550073
 Te     -0.63190140      1.90876330     -1.98354076
 Te     -2.49784281     -0.45890601      1.65517276
 Te     -2.41202921     -0.53382079     -1.77755368
 Te      2.10606117      0.52405164      1.63850567
 Te      0.34033278     -2.53867458      1.50806627
 Te      0.36970663     -2.65949144     -1.43420092
 Te     -0.48409534      2.10613076      1.64787737
 Te      2.22376578      0.29620294     -1.80480589
  P     -3.23400736     -3.08019201      0.13683850
  C     -3.14453468     -4.75045475     -0.74885949
  H     -2.41084992     -5.37123590     -0.22428310
  H     -4.10808854     -5.26434309     -0.69064385
  C     -2.73249179     -4.64128609     -2.21459020
  H     -2.66573648     -5.63480654     -2.66111094
  H     -3.45733695     -4.05496344     -2.78026217
  H     -1.75439497     -4.16047776     -2.29489448
  C     -4.92345560     -2.56546959     -0.49019437
  H     -4.83345344     -2.41947989     -1.57083109
  H     -5.63301229     -3.38414512     -0.33338561
  C     -5.49947334     -1.28965774      0.11809668
  H     -6.50841533     -1.12133025     -0.26325477
  H     -5.54359580     -1.35560771      1.20501013
  H     -4.88139996     -0.43234554     -0.14884227
  C     -3.66237327     -3.69451298      1.86252197
  H     -4.05742175     -2.83441027      2.41015207
  H     -2.71841708     -3.95870968      2.35142878
  C     -4.63440617     -4.86513616      2.00650506
  H     -4.85279181     -5.02217968      3.06446864
  H     -5.57444869     -4.66747242      1.49141184
  H     -4.20581210     -5.78487838      1.60914332
  P     -3.03582302      2.92339971      0.14157902
  C     -3.86604798      3.35797528      1.77044273
  H     -3.07058170      3.50465231      2.50809624
  H     -4.40453856      4.30613062      1.67861396
  C     -4.82918122      2.29205340      2.28835966
  H     -5.18764015      2.56421899      3.28245164
  H     -5.68952346      2.18691279      1.62642750
  H     -4.32502674      1.32441938      2.35339253
  C     -4.54443885      3.02837953     -0.98971647
  H     -5.23657936      2.23300259     -0.69520566
  H     -5.07168843      3.97601993     -0.85073378
  C     -4.19777139      2.84184168     -2.46525146
  H     -5.09755416      2.92694369     -3.07679283
  H     -3.47707397      3.58985540     -2.79807081
  H     -3.76129378      1.85323287     -2.62558108
  C     -2.19154294      4.56702402     -0.17942741
  H     -1.49975062      4.42483683     -1.01569727
  H     -1.57622254      4.77314858      0.70210162
  C     -3.06309709      5.78855345     -0.46769197
  H     -2.42926395      6.67574109     -0.52126886
  H     -3.58171630      5.68557408     -1.42054155
  H     -3.80347088      5.94686756      0.31665178
  P      2.05078462      3.57736428     -0.54610325
  C      1.84851140      4.54786315     -2.13920300
  H      0.81284134      4.89776346     -2.19504394
  H      2.49388042      5.43094234     -2.13190767
  C      2.15295265      3.72642291     -3.38999088
  H      2.04968635      4.34756314     -4.28123689
  H      3.16531243      3.32264949     -3.36072383
  H      1.45058995      2.89550259     -3.46600467
  C      3.92991192      3.54048887     -0.48493206
  H      4.25492879      2.73262087     -1.14853691
  H      4.34977213      4.46943369     -0.88263314
  C      4.50197071      3.28612320      0.90908397
  H      5.57396529      3.09310953      0.84213432
  H      4.34705247      4.14685143      1.56018959
  H      4.02034318      2.41854309      1.36723371
  C      1.67282038      4.93149675      0.70044683
  H      1.90024536      4.52629161      1.69187843
  H      0.58982621      5.08823888      0.68554321
  C      2.36648819      6.28454607      0.53921673
  H      2.10485278      6.92699426      1.38197202
  H      3.45050977      6.17643704      0.51737084
  H      2.04874847      6.78098303     -0.37738457
  P     -0.03990259     -1.02553113      4.15021400
  C     -1.17864650     -2.38090076      4.77180683
  H     -1.16430736     -3.17950919      4.02334806
  H     -0.79049024     -2.80776490      5.70116991
  C     -2.62297777     -1.93836520      5.00218940
  H     -3.25734466     -2.81169497      5.16291767
  H     -2.69888297     -1.29187259      5.87682763
  H     -2.99657836     -1.39289404      4.13266712
  C     -0.35356592      0.28121442      5.47649673
  H     -1.38029801      0.64074033      5.35679516
  H     -0.27809421     -0.14548907      6.48032353
  C      0.58977553      1.47643297      5.34885850
  H      0.34813291      2.22782656      6.10236268
  H      1.62946839      1.17476900      5.48094159
  H      0.48643107      1.93159745      4.36039362
  C      1.60835858     -1.72502107      4.70920692
  H      2.38860647     -1.07746460      4.29664613
  H      1.71531561     -2.69399426      4.21125779
  C      1.86329243     -1.90442901      6.20560632
  H      2.81905132     -2.41216534      6.34791747
  H      1.91215326     -0.94230949      6.71473793
  H      1.08583226     -2.50671024      6.67573802
  P      3.81019109     -1.78239653      0.42802227
  C      5.26396350     -0.60560523      0.29073353
  H      4.99428481      0.30483129      0.83335205
  H      6.13316312     -1.03387597      0.79895181
  C      5.66966904     -0.23377765     -1.13383605
  H      6.40919541      0.56844235     -1.11055776
  H      6.10213202     -1.08869484     -1.65437395
  H      4.79914512      0.11110578     -1.69707239
  C      4.49661316     -3.22671607     -0.57419596
  H      4.55825251     -2.91126791     -1.62000287
  H      5.51308573     -3.47589516     -0.25731061
  C      3.61103679     -4.46904416     -0.49759280
  H      4.01300490     -5.25668809     -1.13696485
  H      3.55067807     -4.84772106      0.52342361
  H      2.59895245     -4.23071765     -0.83639717
  C      4.09810300     -2.39068793      2.18231265
  H      3.23008071     -2.99793855      2.45884286
  H      4.06801590     -1.50134770      2.82024583
  C      5.36794534     -3.18153235      2.49574626
  H      5.41498447     -3.37161179      3.56970027
  H      5.37096753     -4.14239937      1.98202832
  H      6.26440044     -2.63161756      2.20911843
  P      0.43184073     -0.95138181     -4.29585924
  C     -0.99472973     -1.32830099     -5.46809067
  H     -1.56938406     -0.40716861     -5.61025908
  H     -0.61407741     -1.62886890     -6.44847093
  C     -1.93272155     -2.41440010     -4.94680307
  H     -2.74181147     -2.58626757     -5.65855062
  H     -1.39810108     -3.35262495     -4.79489140
  H     -2.36996132     -2.10213561     -3.99546166
  C      1.53446901     -2.40177928     -4.73390225
  H      1.08918343     -3.29109487     -4.27752902
  H      1.54360805     -2.56232371     -5.81640749
  C      2.97108761     -2.27190461     -4.23370870
  H      3.53226252     -3.17704679     -4.47225045
  H      3.47282392     -1.42089256     -4.69454540
  H      2.98367192     -2.12883601     -3.15324586
  C      1.24133237      0.44394172     -5.26014368
  H      2.16890550      0.69373347     -4.73540374
  H      0.58921734      1.31854203     -5.15872374
  C      1.54658136      0.22693604     -6.74193780
  H      2.04162946      1.11416669     -7.14095064
  H      2.20811228     -0.62621068     -6.88903287
  H      0.63405327      0.06195967     -7.31406061
