146
Energy =   -192.73220601 au
 Co     -0.02986192     -1.95201170      0.49581938
 Co     -0.14635074      2.21185983     -0.91252360
 Co     -2.32268403      0.40069413      0.23014434
 Co      0.14789390      0.71662773      1.99724885
 Co      2.05557787      0.15130055     -0.38710360
 Co     -0.55427043     -0.59114308     -2.16492632
 Te      1.22824826      0.98570434     -2.51538137
 Te     -1.34913318      2.44827801      1.16422963
 Te     -2.09643773      1.26173846     -2.03433691
 Te      1.84419381     -1.00038981      1.73790073
 Te     -1.61721610     -0.99289850      2.08112408
 Te     -2.12846164     -1.79555122     -0.74498833
 Te      1.58619473      2.24530425      0.80302586
 Te      1.39099521     -1.88668096     -1.50234169
  P      0.47407075     -3.93566390      1.14418091
  C      2.18830822     -4.67289426      0.95426591
  H      2.90138686     -3.93480684      1.33360745
  H      2.28245388     -5.56195521      1.58495822
  C      2.57495258     -5.04723889     -0.47444162
  H      3.62558742     -5.33993125     -0.51036332
  H      1.96996834     -5.87745730     -0.84002584
  H      2.42949363     -4.19313286     -1.14070726
  C     -0.54574219     -5.39156346      0.52123353
  H     -0.38321879     -5.47766854     -0.55757029
  H     -0.20070362     -6.32783724      0.96907198
  C     -2.04315369     -5.22202357      0.77046425
  H     -2.59318603     -6.05498709      0.32953705
  H     -2.26396754     -5.18612207      1.83775858
  H     -2.39712859     -4.29334840      0.31465669
  C      0.29420751     -4.12763580      3.00507441
  H     -0.62603430     -3.61138028      3.29814911
  H      1.11829293     -3.55844312      3.44824551
  C      0.28500886     -5.53220331      3.60816367
  H      0.26114543     -5.45408193      4.69672084
  H     -0.59337562     -6.09285416      3.29000637
  H      1.17567174     -6.09474846      3.32824847
  P     -0.95578071     -2.07340058     -3.65392483
  C      0.33210752     -2.22997846     -5.02188147
  H      1.23618155     -2.65743560     -4.57684415
  H     -0.01626394     -2.92086914     -5.79461125
  C      0.68989420     -0.90028782     -5.68258733
  H      1.48338066     -1.05047116     -6.41650365
  H     -0.17431651     -0.47007452     -6.19043519
  H      1.04011437     -0.18464692     -4.93476516
  C     -2.48007498     -1.87993687     -4.74832297
  H     -2.29312413     -1.06074900     -5.44960577
  H     -2.63562954     -2.78315997     -5.34572253
  C     -3.75125903     -1.56314997     -3.96566345
  H     -4.60144062     -1.47533178     -4.64411804
  H     -3.96505470     -2.34497123     -3.23603862
  H     -3.63354562     -0.61653939     -3.43227067
  C     -1.12826687     -3.87329926     -3.16193347
  H     -2.11459982     -3.98414359     -2.70276891
  H     -0.39660822     -4.06295404     -2.37086762
  C     -0.96178642     -4.94045173     -4.24325264
  H     -1.20464256     -5.91759870     -3.82163963
  H     -1.62607706     -4.76070056     -5.08886102
  H      0.06514599     -4.97411938     -4.60663123
  P     -0.01551037      0.60296582      4.13421312
  C     -1.58041755      1.13969414      5.02467354
  H     -2.40346393      0.54459084      4.61665456
  H     -1.51452973      0.90867388      6.09190730
  C     -1.90733153      2.62360013      4.86238034
  H     -2.91722128      2.82476813      5.22362892
  H     -1.20986375      3.24080222      5.42941418
  H     -1.84991666      2.91541818      3.81109047
  C      1.22222731      1.71457793      5.03005935
  H      0.99112030      2.75197585      4.76900453
  H      1.12020722      1.62765446      6.11505770
  C      2.66485913      1.42843446      4.61930085
  H      3.34740264      2.10136725      5.14079170
  H      2.94492663      0.40013246      4.85056466
  H      2.78076382      1.58128390      3.54450697
  C      0.26824210     -1.03764415      4.99439785
  H      1.09259896     -1.53453587      4.47369993
  H     -0.62501225     -1.64253108      4.80947449
  C      0.56680975     -1.03685846      6.49321547
  H      0.59559359     -2.06716186      6.85260377
  H      1.53352372     -0.57913242      6.70148351
  H     -0.19914244     -0.50288414      7.05574472
  P     -4.20934573      1.32120156      0.65010331
  C     -5.67667581      0.14305054      0.46619219
  H     -5.61909255     -0.60135730      1.26689405
  H     -6.61729684      0.68646870      0.59283971
  C     -5.70556627     -0.58349026     -0.87693955
  H     -6.56191688     -1.25854876     -0.91926025
  H     -5.78056556      0.12369626     -1.70399035
  H     -4.79425392     -1.17158951     -1.00695431
  C     -4.91556733      2.73561351     -0.35753751
  H     -5.04757710      2.37038314     -1.38064851
  H     -5.90801824      2.99871492      0.02141190
  C     -4.05041393      3.99127289     -0.40900681
  H     -4.57547877      4.78479437     -0.94377979
  H     -3.80582284      4.34570985      0.59220838
  H     -3.12011663      3.77616737     -0.93525780
  C     -4.52840501      1.92782667      2.39882000
  H     -3.94555739      2.84487386      2.52355496
  H     -4.08654846      1.19004037      3.07684325
  C     -5.96910096      2.19233549      2.83585734
  H     -5.96646429      2.62229034      3.83922730
  H     -6.46576945      2.89478781      2.16649347
  H     -6.54789012      1.26941720      2.86444868
  P      0.20506541      3.90594574     -2.16866111
  C     -0.68725891      4.12738172     -3.80318672
  H     -1.75796074      4.20091696     -3.58749462
  H     -0.38031548      5.07097049     -4.26414988
  C     -0.47370239      2.99968559     -4.80983192
  H     -0.95674015      3.25009029     -5.75606021
  H      0.58760052      2.83089222     -4.99171450
  H     -0.91210305      2.07482049     -4.43267176
  C      1.93014584      4.42592579     -2.69668843
  H      2.37640374      3.57385797     -3.21745340
  H      1.87969736      5.25127775     -3.41344392
  C      2.84130144      4.82501305     -1.53661593
  H      3.86707340      4.93980048     -1.89085822
  H      2.52280963      5.76975153     -1.09512770
  H      2.82407962      4.06288465     -0.75413052
  C     -0.37956342      5.47779944     -1.29740727
  H      0.16272744      5.53833991     -0.34794658
  H     -1.43117408      5.32671410     -1.03366613
  C     -0.24855582      6.81287528     -2.03123639
  H     -0.58065382      7.61891888     -1.37416782
  H      0.78415555      7.01114008     -2.31654361
  H     -0.86617101      6.83068077     -2.92889707
  P      4.17043199      0.45678056     -0.22401106
  C      5.05152048      1.50664465     -1.51398474
  H      4.66198400      2.52699409     -1.44934552
  H      6.12224789      1.55581730     -1.29761771
  C      4.86410881      0.99511144     -2.94119882
  H      5.33642903      1.67955596     -3.64773971
  H      5.30921421      0.00709152     -3.06406579
  H      3.80026191      0.92878590     -3.18254058
  C      5.21715835     -1.10259582     -0.38218760
  H      4.79156738     -1.68903775     -1.20339708
  H      6.24259866     -0.85025936     -0.66836304
  C      5.24726733     -1.97556898      0.87114211
  H      5.64924212     -2.96119717      0.63088741
  H      5.86993172     -1.52838624      1.64613337
  H      4.23944444     -2.09718431      1.27530163
  C      4.86373919      1.21412106      1.34226295
  H      4.55272494      0.56895971      2.17027913
  H      4.34631295      2.16762697      1.48820221
  C      6.37162963      1.44985030      1.43074240
  H      6.62694047      1.76924077      2.44273729
  H      6.93363440      0.54328479      1.20803148
  H      6.68698560      2.23123862      0.73955489
