146
Energy =   -192.73137053 au
 Co      1.77190214     -1.20897418      0.03330540
 Co     -1.86307554      1.26195380     -0.13518949
 Co     -1.42707204     -1.79742219      0.06655260
 Co     -0.07808643     -0.17171844      2.25676680
 Co      1.12924490      1.79926754      0.19088809
 Co     -0.06480746     -0.14493181     -2.16851166
 Te     -0.27793645      2.23081425     -1.73442722
 Te     -2.44738830     -0.24228599      1.66621619
 Te     -2.42815821     -0.49581351     -1.71467262
 Te      2.24697355      0.39212718      1.81488054
 Te      0.36781681     -2.48233175      1.53416083
 Te      0.32698199     -2.45930348     -1.47234810
 Te     -0.69554258      2.12481277      1.81333236
 Te      2.20585804      0.56697361     -1.58658337
  P     -3.20262915      2.66711308     -1.05170085
  C     -4.92176157      2.59741381     -0.26133361
  H     -4.83361338      2.92548046      0.77945565
  H     -5.60755144      3.28456476     -0.76409743
  C     -5.52000414      1.19323685     -0.28541089
  H     -6.49906437      1.19068546      0.19639838
  H     -5.63309910      0.83351268     -1.30879116
  H     -4.86670791      0.50312051      0.25064672
  C     -3.74751206      2.60615238     -2.84855885
  H     -3.81696261      1.54653756     -3.11486984
  H     -4.75513295      3.02438178     -2.93683416
  C     -2.84317002      3.30223644     -3.86350298
  H     -3.19267970      3.08474576     -4.87443582
  H     -2.84912283      4.38312540     -3.72179238
  H     -1.81571317      2.95029472     -3.76563951
  C     -2.83943277      4.49494358     -0.81501997
  H     -1.98762569      4.73457146     -1.45722040
  H     -2.49094800      4.62354692      0.21551166
  C     -3.96383836      5.49523307     -1.08434373
  H     -3.56551752      6.51011832     -1.02961732
  H     -4.39486233      5.35090896     -2.07493779
  H     -4.75760078      5.40227983     -0.34346379
  P      3.80204539     -1.85613410      0.24241693
  C      5.28539960     -0.71206571      0.17631747
  H      5.06102212      0.14164064      0.82297892
  H      6.16039869     -1.21358883      0.60035894
  C      5.64413010     -0.20479218     -1.21871382
  H      6.40264591      0.57636728     -1.14612201
  H      6.03505589     -1.01075481     -1.84031858
  H      4.76114708      0.21354369     -1.70785519
  C      4.41154852     -3.20504070     -0.92852319
  H      4.43933823     -2.78485005     -1.93846233
  H      5.43369446     -3.50507592     -0.68144619
  C      3.50167927     -4.43178015     -0.94266273
  H      3.84909944     -5.14853890     -1.68852768
  H      3.48695380     -4.92306749      0.03089509
  H      2.47869334     -4.13787143     -1.19509501
  C      4.12372847     -2.65174970      1.91477085
  H      3.24546381     -3.25742055      2.16170562
  H      4.14358036     -1.83191064      2.64032798
  C      5.37800056     -3.50578525      2.09682848
  H      5.45793122     -3.80585996      3.14336323
  H      5.33257100     -4.40881415      1.48882853
  H      6.28045418     -2.95448705      1.83242101
  P     -3.00423198     -3.22293149      0.27750717
  C     -2.94345602     -4.64052131     -0.96050490
  H     -2.05874796     -5.24787021     -0.74318427
  H     -3.81884222     -5.28496741     -0.84005633
  C     -2.87093239     -4.17321722     -2.41296838
  H     -2.90193967     -5.03215139     -3.08534239
  H     -3.70324590     -3.51084364     -2.65328898
  H     -1.93736753     -3.63375548     -2.58416555
  C     -4.81460133     -2.76090480      0.09591493
  H     -4.87096970     -2.02209569     -0.71040046
  H     -5.39857976     -3.62889321     -0.22494748
  C     -5.45408888     -2.16938624      1.35124273
  H     -6.42290761     -1.73255966      1.10362376
  H     -5.60584839     -2.93399354      2.11322161
  H     -4.81704364     -1.38761364      1.77031167
  C     -3.01579734     -4.21160470      1.87358529
  H     -3.28525084     -3.52305179      2.67965834
  H     -1.98134938     -4.51558109      2.06685158
  C     -3.91933035     -5.44281501      1.95096916
  H     -3.90438106     -5.83921060      2.96789282
  H     -4.94996777     -5.19723020      1.69561084
  H     -3.57248734     -6.22535750      1.27647059
  P      1.78853574      3.67264274      1.00071089
  C      0.80512865      5.25055063      0.72644934
  H     -0.20841100      5.06822164      1.09728488
  H      1.22168150      6.07025542      1.31908442
  C      0.73021259      5.68842798     -0.73570188
  H     -0.00963597      6.48247889     -0.84972999
  H      1.69377105      6.06454449     -1.08063174
  H      0.43920188      4.84911429     -1.37173227
  C      3.44734154      4.23550571      0.29175436
  H      3.31511840      4.39762251     -0.78244967
  H      3.76038103      5.18984339      0.72342466
  C      4.54484105      3.19170230      0.48479322
  H      5.48061312      3.53976939      0.04455104
  H      4.71294788      2.98549002      1.54236974
  H      4.25621463      2.25949392     -0.00399176
  C      2.09732484      3.83016108      2.84311568
  H      2.52867090      2.88221701      3.18014748
  H      1.11278731      3.90821475      3.31466339
  C      2.97700907      4.97605562      3.34142122
  H      2.96333233      4.98870175      4.43287942
  H      4.00983604      4.84947873      3.01780309
  H      2.61692104      5.94192300      2.98634321
  P      0.26573818     -0.42493588     -4.26582714
  C     -1.18750576     -0.50110724     -5.45705053
  H     -1.71811883      0.45537722     -5.40397563
  H     -0.82862750     -0.61630807     -6.48393994
  C     -2.17318709     -1.62583937     -5.14953019
  H     -3.00679304     -1.59609799     -5.85306460
  H     -1.69114730     -2.60144687     -5.22154636
  H     -2.56963399     -1.50588886     -4.13779160
  C      1.23744139     -1.89359980     -4.90851084
  H      0.70437684     -2.79659641     -4.59474204
  H      1.26573101     -1.89705974     -6.00225034
  C      2.66194354     -1.96355247     -4.36208193
  H      3.15489612     -2.87001972     -4.71723392
  H      3.24940815     -1.10181996     -4.67934642
  H      2.64354272     -1.98461049     -3.27196393
  C      1.20431213      1.01524673     -5.02273682
  H      2.14005183      1.11140996     -4.46170409
  H      0.62707571      1.91966730     -4.80006700
  C      1.51691691      0.98030695     -6.51831546
  H      2.09746172      1.86540953     -6.78489915
  H      2.10197925      0.09901878     -6.78041778
  H      0.60425017      0.98157308     -7.11392851
  P      0.10625618     -1.06925173      4.20268771
  C     -1.05712082     -2.40777422      4.81991470
  H     -1.00513551     -3.23605074      4.10692247
  H     -0.71749118     -2.79248235      5.78618524
  C     -2.51068403     -1.95589968      4.95609524
  H     -3.15374397     -2.81884049      5.13711686
  H     -2.62676792     -1.26104014      5.78841719
  H     -2.84451504     -1.45715513      4.04311805
  C     -0.11605002      0.16957225      5.61301750
  H     -1.14503755      0.54029426      5.57443735
  H      0.01503304     -0.30920000      6.58707735
  C      0.82728529      1.36363644      5.48844239
  H      0.65062264      2.07246273      6.29900009
  H      1.87082095      1.04871164      5.52335448
  H      0.65325795      1.87306797      4.53852175
  C      1.74537898     -1.85789837      4.65819621
  H      2.53291631     -1.22662198      4.23434461
  H      1.79000634     -2.80954299      4.11908237
  C      2.05717173     -2.10735158      6.13331052
  H      2.99786471     -2.65545721      6.21242071
  H      2.16591013     -1.16930716      6.67707827
  H      1.27811781     -2.69949868      6.61366993
