146
Energy =   -192.72917156 au
 Co      1.71166886     -1.40485464      0.15922937
 Co     -1.39128700      1.60008600     -0.50001190
 Co     -1.28217858     -1.59943075     -0.32006612
 Co     -0.06937976      0.41283618      1.93948971
 Co      1.84408839      1.59223087     -0.31760425
 Co      0.30051761     -0.00130603     -2.44120333
 Te      0.32895116      2.41654564     -2.00800175
 Te     -2.33530373      0.03792027      1.11481627
 Te     -2.09853039     -0.12241582     -2.06648346
 Te      2.35285152      0.37034787      1.70120296
 Te     -0.05949469     -2.00344224      1.73533690
 Te      0.55310530     -2.31456546     -1.78941953
 Te      0.17698807      2.67505077      1.02702303
 Te      2.60972600     -0.22211363     -1.77746132
  P     -0.24574933      0.67787435      4.06983888
  C     -1.67334614     -0.12336775      4.99518342
  H     -1.65662340     -1.19323664      4.76094354
  H     -1.52558847     -0.02690041      6.07477065
  C     -3.04920866      0.43501463      4.63954030
  H     -3.82549031     -0.11885515      5.17012617
  H     -3.12722598      1.48843923      4.91067417
  H     -3.22768479      0.33818094      3.56570151
  C     -0.28506553      2.37746582      4.86896368
  H     -1.17532560      2.89879003      4.50250952
  H     -0.38910483      2.29469961      5.95476427
  C      0.94125062      3.22407212      4.53323785
  H      0.85400265      4.20973024      4.99320606
  H      1.85730302      2.75280091      4.89072420
  H      1.01757725      3.35436283      3.45047614
  C      1.17167067     -0.13961750      4.99261783
  H      2.09865720      0.21731510      4.53199232
  H      1.11442699     -1.20921745      4.76027813
  C      1.27192988      0.03204844      6.50816885
  H      2.13941913     -0.52098193      6.87333986
  H      1.39946696      1.07980330      6.77939542
  H      0.38713702     -0.35304437      7.01489197
  P     -0.32570211      0.68304101     -4.37599077
  C     -1.68104247      1.92731354     -4.74449710
  H     -1.81927206      2.52522108     -3.83916485
  H     -1.34378496      2.61671818     -5.52358353
  C     -3.03415896      1.34865896     -5.15346358
  H     -3.77976518      2.14562548     -5.17416637
  H     -2.98966771      0.89369045     -6.14291441
  H     -3.35436889      0.59586765     -4.43188713
  C     -0.80553726     -0.73096690     -5.53233658
  H     -1.73010988     -1.17315569     -5.15002465
  H     -1.01151463     -0.36586934     -6.54176986
  C      0.26374509     -1.82019963     -5.59222997
  H     -0.08797674     -2.65804455     -6.19642572
  H      1.18801634     -1.44138134     -6.02992630
  H      0.48498364     -2.18742234     -4.58605783
  C      1.09222243      1.46525875     -5.35666437
  H      2.00574623      0.90892056     -5.12225256
  H      1.22770770      2.46810439     -4.93898897
  C      0.95338745      1.57184833     -6.87502041
  H      1.78262900      2.15940697     -7.27368371
  H      0.98055037      0.58805868     -7.34264462
  H      0.02195177      2.06367053     -7.15646366
  P     -3.01079313      2.86996880      0.09044504
  C     -4.78771113      2.33731386     -0.21570553
  H     -4.96407529      1.44172440      0.38860439
  H     -5.48158705      3.10817082      0.13248889
  C     -5.10016400      2.01725194     -1.67581180
  H     -6.10833275      1.60841417     -1.76103062
  H     -5.03562020      2.91207919     -2.29588353
  H     -4.39303677      1.27917808     -2.06137749
  C     -3.05564706      4.53729113     -0.79452326
  H     -3.19614183      4.34121345     -1.86246687
  H     -3.91288683      5.13023043     -0.46435971
  C     -1.77187118      5.34501597     -0.61902502
  H     -1.85257736      6.29820435     -1.14417987
  H     -1.57180774      5.54232859      0.43476595
  H     -0.92311553      4.79371180     -1.03018049
  C     -3.17931584      3.37711122      1.88783814
  H     -2.17433646      3.58963431      2.26516574
  H     -3.53287614      2.49428539      2.42890820
  C     -4.08861681      4.55778876      2.22593139
  H     -4.14771856      4.66359803      3.31080063
  H     -3.69545688      5.48796666      1.81641881
  H     -5.09869767      4.40877315      1.84405503
  P      3.86312732      2.29086072     -0.34219931
  C      4.32474191      3.41246248     -1.78900131
  H      3.74654021      4.33792277     -1.70027748
  H      5.38331384      3.68349645     -1.74469967
  C      4.02761799      2.78112178     -3.14699563
  H      4.35398176      3.44236914     -3.95142705
  H      4.53585393      1.82197493     -3.25271886
  H      2.95445863      2.61328345     -3.25087576
  C      5.41860179      1.23923965     -0.29930087
  H      5.25222264      0.40287740     -0.98479340
  H      6.25852428      1.81568015     -0.69991713
  C      5.81958262      0.67971287      1.06481155
  H      6.62219885     -0.04959503      0.94024388
  H      6.17320300      1.47043580      1.72701391
  H      4.97022529      0.18898131      1.54278244
  C      4.17206539      3.48456890      1.08143198
  H      4.16232706      2.89112531      2.00127078
  H      3.30031520      4.14579583      1.13979817
  C      5.43897575      4.33898662      1.04104860
  H      5.52997926      4.89692755      1.97492598
  H      6.33055290      3.72337325      0.92304561
  H      5.40142954      5.05477147      0.21997636
  P      2.79112770     -2.99382637      1.10792087
  C      4.56720412     -3.17187844      0.48311907
  H      5.12759730     -2.28104102      0.78357916
  H      5.05437588     -4.03441630      0.94576202
  C      4.64633770     -3.31674448     -1.03535531
  H      5.68910840     -3.36459565     -1.35320133
  H      4.13971999     -4.22409484     -1.36705669
  H      4.17502206     -2.45955217     -1.52336356
  C      2.24243739     -4.77655395      0.85196208
  H      1.81116483     -4.82796509     -0.15369611
  H      3.11128429     -5.44154757      0.85923207
  C      1.21151425     -5.30284528      1.84848709
  H      0.81298829     -6.25708775      1.49968496
  H      1.65587723     -5.45440254      2.83224509
  H      0.38685642     -4.59499051      1.95205834
  C      3.11011710     -2.92738859      2.95207986
  H      2.14763596     -3.07387139      3.45159832
  H      3.41968001     -1.90251702      3.18181283
  C      4.13570526     -3.89757373      3.53784102
  H      4.11639201     -3.82883533      4.62707636
  H      3.91763017     -4.92779869      3.25685839
  H      5.14270467     -3.65220492      3.20095219
  P     -2.49484461     -3.37310633     -0.33077787
  C     -1.84843083     -5.09519772     -0.70671574
  H     -1.00943004     -5.29328171     -0.03284347
  H     -2.61603837     -5.84446478     -0.49221772
  C     -1.37376782     -5.27432824     -2.14704531
  H     -0.91766914     -6.25797128     -2.26983834
  H     -2.20404523     -5.18530661     -2.84820077
  H     -0.62822830     -4.51348249     -2.39311960
  C     -4.03397954     -3.39893748     -1.40775068
  H     -3.71112714     -3.32932382     -2.45147735
  H     -4.56745926     -4.34789802     -1.30052088
  C     -4.98680095     -2.23934322     -1.12233569
  H     -5.83725626     -2.27716838     -1.80498074
  H     -5.36107782     -2.27594190     -0.09890066
  H     -4.46927279     -1.28885332     -1.26922992
  C     -3.22522616     -3.67883858      1.37319237
  H     -3.63698891     -2.72425701      1.71952907
  H     -2.37997226     -3.89675500      2.03537409
  C     -4.28518248     -4.76733570      1.54026105
  H     -4.58754393     -4.81601508      2.58802822
  H     -5.17037811     -4.55391676      0.94157718
  H     -3.89927994     -5.74541482      1.25305168
