146
Energy =   -192.73554984 au
 Co      0.96089214     -2.03461430     -0.36021396
 Co     -1.11119153      1.73332763      0.40329198
 Co     -1.65048559     -0.90797646     -1.46866788
 Co     -1.46901409     -1.04228090      1.58243568
 Co      1.41822960      0.35069735      1.44551550
 Co      0.86613736      0.81405044     -1.74922880
 Te      1.24246686      2.36001201      0.08230076
 Te     -3.02188480      0.23142570      0.16996670
 Te     -1.49632419      1.46283869     -1.98150578
 Te      0.71702508     -1.91782689      2.06139374
 Te     -1.28785214     -2.85738001     -0.00270914
 Te      0.43176169     -1.39797351     -2.63907622
 Te     -0.61027668      0.93705109      2.65854448
 Te      2.64540182     -0.28070273     -0.57459420
  P     -1.30864033      3.69652366      1.25330523
  C     -2.98829986      4.00488452      2.06172469
  H     -3.06331314      3.35645592      2.94037420
  H     -3.06637494      5.03789596      2.41070554
  C     -4.16066725      3.71481375      1.12651033
  H     -5.10421715      3.82356331      1.66376887
  H     -4.16176546      4.40286625      0.28008743
  H     -4.09778292      2.69394582      0.74096650
  C     -1.32017144      5.15063562      0.04506891
  H     -1.76728499      4.78424539     -0.88511048
  H     -1.96765173      5.95113420      0.41449771
  C      0.05740408      5.72925983     -0.27276545
  H      0.00691608      6.34421672     -1.17279841
  H      0.42361487      6.34745617      0.54670584
  H      0.77758722      4.92505175     -0.43869717
  C     -0.19198440      4.35292175      2.60556982
  H      0.81615916      4.42564751      2.18721931
  H     -0.15071605      3.58345269      3.38170580
  C     -0.56221243      5.68430738      3.25947928
  H      0.25509831      6.00386681      3.90862110
  H     -0.73381004      6.46517140      2.51921973
  H     -1.45928406      5.58383698      3.87018824
  P     -2.48121416     -2.41934033     -2.75590495
  C     -2.78757067     -1.79409316     -4.51416635
  H     -1.81312566     -1.64934275     -4.99023534
  H     -3.33334784     -2.53694735     -5.10173513
  C     -3.56124245     -0.47786937     -4.55077578
  H     -3.61469995     -0.10231867     -5.57392537
  H     -4.57719743     -0.61432489     -4.17770041
  H     -3.06592126      0.27439498     -3.93108542
  C     -4.25382108     -2.95448091     -2.36367734
  H     -4.79016298     -2.05914354     -2.03229237
  H     -4.75345824     -3.30543549     -3.27143222
  C     -4.38002697     -4.02355983     -1.28112328
  H     -5.42359407     -4.12833024     -0.97932825
  H     -4.02575629     -4.98959230     -1.64120797
  H     -3.78797625     -3.75227380     -0.40513108
  C     -1.68171551     -4.06861997     -3.14622119
  H     -1.64189787     -4.63880196     -2.21419860
  H     -0.64443382     -3.86629973     -3.42817636
  C     -2.32574008     -4.93271777     -4.23003054
  H     -1.82204272     -5.90071589     -4.26038920
  H     -3.38288485     -5.10617518     -4.02977715
  H     -2.22916290     -4.47093006     -5.21241563
  P      1.05504327      1.96689983     -3.55307438
  C      0.12576766      1.59601613     -5.14013849
  H     -0.93719673      1.54279976     -4.88689747
  H      0.24577918      2.42289448     -5.84629425
  C      0.53685399      0.30012960     -5.83741587
  H     -0.16404540      0.07569279     -6.64327164
  H      1.53691026      0.38565647     -6.26353630
  H      0.53219963     -0.53201764     -5.12976622
  C      2.82026685      1.97372791     -4.22463583
  H      3.07187842      0.94846676     -4.51354097
  H      2.90147268      2.58923649     -5.12465048
  C      3.83462125      2.44235120     -3.18255655
  H      4.84682255      2.36959138     -3.58362391
  H      3.65059775      3.47725376     -2.89181915
  H      3.77075502      1.81695533     -2.28836063
  C      0.70909045      3.80488159     -3.40792036
  H      1.16532438      4.13817771     -2.47118183
  H     -0.37291582      3.90974782     -3.27727658
  C      1.17057131      4.73529777     -4.52941203
  H      0.83807048      5.75162653     -4.31028908
  H      2.25716269      4.74505275     -4.61128871
  H      0.75263121      4.44226022     -5.49240828
  P      2.98430749      0.78597184      2.86649617
  C      4.53483010      1.64142529      2.23400647
  H      4.20905365      2.48078632      1.60995835
  H      5.10410239      2.06208310      3.06801623
  C      5.46338451      0.74997532      1.41221071
  H      6.28703868      1.34194472      1.00958492
  H      5.87899164     -0.05224896      2.02267966
  H      4.91741531      0.30379396      0.57735152
  C      3.78316299     -0.51011280      3.96690459
  H      4.23141784     -1.26961101      3.31910764
  H      4.59792297     -0.06946597      4.54907989
  C      2.79734694     -1.20156373      4.90667437
  H      3.30708473     -1.98072668      5.47573782
  H      2.35281344     -0.49372858      5.60660965
  H      1.99436139     -1.66534558      4.32782149
  C      2.46080303      2.06952665      4.13551712
  H      1.49572642      1.74739999      4.53975869
  H      2.26035759      2.99019131      3.57674387
  C      3.40206819      2.39793584      5.29491420
  H      2.96236585      3.19532732      5.89689452
  H      3.55384033      1.53230490      5.93878173
  H      4.37375313      2.73948409      4.93859424
  P      2.64695977     -3.36051850     -0.35634754
  C      3.85058990     -3.41745843     -1.79689967
  H      4.33929220     -2.43939317     -1.84836764
  H      4.62926257     -4.16314224     -1.61119651
  C      3.19988835     -3.71723897     -3.14579445
  H      3.93818159     -3.62433144     -3.94399244
  H      2.79217845     -4.72858609     -3.16663403
  H      2.38560774     -3.01469803     -3.34120323
  C      2.19757536     -5.19271812     -0.28139032
  H      1.63708123     -5.43482540     -1.19014397
  H      3.09526133     -5.81706758     -0.28510858
  C      1.33166864     -5.54215384      0.92716717
  H      1.07600740     -6.60289667      0.91223895
  H      1.85204113     -5.32251395      1.86015536
  H      0.40550714     -4.96263207      0.90590717
  C      3.87428126     -3.21468868      1.05354923
  H      3.29251958     -3.13795254      1.97734213
  H      4.38296156     -2.25360371      0.92835699
  C      4.92582202     -4.30989603      1.22727357
  H      5.58099936     -4.04619893      2.05959937
  H      4.46267789     -5.27022406      1.45251466
  H      5.54048104     -4.42099026      0.33415960
  P     -3.14240768     -1.17119448      2.91459919
  C     -2.64735403     -1.88146125      4.59326016
  H     -1.98477822     -1.15867344      5.08047973
  H     -3.52274204     -2.00870753      5.23585297
  C     -1.92124434     -3.22100015      4.47960799
  H     -1.60250429     -3.55899080      5.46700431
  H     -2.57230209     -3.98123020      4.04600196
  H     -1.03624662     -3.12099917      3.84582403
  C     -4.57376871     -2.33636792      2.53775421
  H     -4.13874366     -3.25752270      2.13635932
  H     -5.09507385     -2.60795921      3.46068528
  C     -5.58921897     -1.80009222      1.53110333
  H     -6.28581036     -2.59079872      1.24732022
  H     -6.15909748     -0.97229610      1.95347991
  H     -5.08464127     -1.43915879      0.63342163
  C     -4.04314381      0.36875325      3.48303980
  H     -4.54058291      0.79562465      2.60765061
  H     -3.27622987      1.08995586      3.78427412
  C     -5.06165102      0.22980509      4.61403783
  H     -5.56264159      1.18789002      4.76450981
  H     -5.81974541     -0.51709548      4.37902907
  H     -4.57723886     -0.04939995      5.54948566
