146
Energy =   -192.73072320 au
 Co      1.55956903     -1.45400822      0.10774833
 Co     -1.21384044      1.96897444     -0.26713418
 Co     -1.50111568     -1.29906206     -0.28704942
 Co     -0.16186534      0.23823296      2.01193462
 Co      1.85134823      1.55701357     -0.20386758
 Co      0.12457543      0.17002777     -2.39852972
 Te      0.45194978      2.53675368     -1.93254346
 Te     -2.45108405      0.42989257      1.15042466
 Te     -2.23665430      0.44009886     -1.82035881
 Te      2.25873958      0.20287124      1.77116606
 Te     -0.23077417     -2.15873656      1.59529081
 Te      0.23441330     -2.17900047     -1.78993006
 Te      0.41968726      2.53403453      1.46907638
 Te      2.42800398     -0.19299875     -1.80617843
  P     -2.76231280     -3.03653955     -0.27594327
  C     -2.11682598     -4.79674912     -0.24151157
  H     -1.37834051     -4.85611389      0.56331712
  H     -2.92753393     -5.48503481      0.01569310
  C     -1.47304773     -5.27058421     -1.54247440
  H     -1.01450824     -6.24979968     -1.39492929
  H     -2.21327093     -5.34990431     -2.33921201
  H     -0.69878058     -4.56807249     -1.86017274
  C     -4.08118023     -3.23423093     -1.60599374
  H     -3.56957974     -3.34412037     -2.56735473
  H     -4.65902656     -4.14931981     -1.44714599
  C     -5.02692726     -2.03827063     -1.69748195
  H     -5.71574903     -2.16887768     -2.53369605
  H     -5.60932651     -1.92506709     -0.78256900
  H     -4.45715981     -1.11920449     -1.85863594
  C     -3.79705667     -3.07553816      1.29275847
  H     -4.18166090     -2.06228928      1.45117512
  H     -3.09680577     -3.26480720      2.11380388
  C     -4.95635759     -4.06656432      1.39215027
  H     -5.41363208     -3.98457498      2.37994134
  H     -5.72204722     -3.85619393      0.64610302
  H     -4.61664744     -5.09377687      1.26017071
  P      2.98856086     -2.88621078      0.82489159
  C      4.74016033     -2.85097808      0.13785007
  H      5.20707717     -1.90722064      0.43450638
  H      5.33669289     -3.65708656      0.57385632
  C      4.79224654     -2.97119120     -1.38417353
  H      5.82373875     -2.88722137     -1.73012433
  H      4.39172710     -3.93039799     -1.71428752
  H      4.20593978     -2.17297442     -1.84667290
  C      2.58853778     -4.68955524      0.44851232
  H      2.20881713     -4.72256982     -0.57826047
  H      3.49743171     -5.29805641      0.47194346
  C      1.54379251     -5.31458564      1.37107735
  H      1.18174470     -6.25176820      0.94531388
  H      1.96212757     -5.52166422      2.35614242
  H      0.69528669     -4.63787818      1.49859390
  C      3.35912240     -2.96037028      2.66010523
  H      2.41177262     -3.16431449      3.16968225
  H      3.65464078     -1.95102685      2.96366220
  C      4.41283150     -3.95436557      3.14874551
  H      4.42745444     -3.95573652      4.24016387
  H      4.19707059     -4.96726196      2.80985521
  H      5.40620888     -3.67609581      2.79734604
  P     -0.66116282     -0.19878387      4.04993809
  C     -2.13927136     -1.23427080      4.55883606
  H     -2.12862777     -2.13631033      3.93890756
  H     -2.02964009     -1.55779068      5.59819875
  C     -3.49034306     -0.53932204      4.40436628
  H     -4.29736055     -1.25625224      4.56429902
  H     -3.59869927      0.27163167      5.12508054
  H     -3.58949578     -0.12443401      3.39820614
  C     -0.89090507      1.25746833      5.22682374
  H     -1.76931661      1.81891219      4.89256063
  H     -1.09947115      0.91357765      6.24377988
  C      0.30804977      2.20408964      5.23705128
  H      0.09780488      3.06942976      5.86773098
  H      1.20079171      1.70627453      5.61708474
  H      0.51667975      2.55737498      4.22341772
  C      0.69537232     -1.17237966      4.91257561
  H      1.65323866     -0.75005568      4.59011796
  H      0.65374370     -2.18420967      4.49495733
  C      0.68179531     -1.26198496      6.43810659
  H      1.48123176     -1.92920881      6.76562863
  H      0.84859889     -0.28564787      6.89215264
  H     -0.26397819     -1.65887663      6.80720208
  P      3.75926507      2.47324316     -0.48194590
  C      4.10358764      3.56798274     -1.96696039
  H      3.46956426      4.45694743     -1.88797349
  H      5.14410628      3.90525865     -1.95393578
  C      3.81743945      2.88444260     -3.30146546
  H      4.11422426      3.53191953     -4.12808707
  H      4.35667858      1.94021048     -3.38395240
  H      2.74757464      2.68441751     -3.38484429
  C      5.35362310      1.48026282     -0.47814847
  H      5.21368606      0.65611637     -1.18466150
  H      6.18316398      2.08726763     -0.85376877
  C      5.73896626      0.90026994      0.88222516
  H      6.54928473      0.17910988      0.76259792
  H      6.07522666      1.68407129      1.56143937
  H      4.88582352      0.39624721      1.34157035
  C      4.08469248      3.71305618      0.89644375
  H      4.09209008      3.15484817      1.83846783
  H      3.21150821      4.37286655      0.94487153
  C      5.34798852      4.57013430      0.81055638
  H      5.43849393      5.17358979      1.71563484
  H      6.24184256      3.95314744      0.72154368
  H      5.30590174      5.24440780     -0.04454350
  P     -2.18336098      3.74205567      0.43920607
  C     -3.96391454      3.89806464     -0.17836088
  H     -4.55798110      3.11784847      0.30828674
  H     -4.38754830      4.86362354      0.11123255
  C     -4.09109180      3.73898402     -1.69239303
  H     -5.14156370      3.77879679     -1.98508705
  H     -3.55562849      4.53158273     -2.21670205
  H     -3.67965549      2.77735398     -2.00925215
  C     -1.59634066      5.46427210     -0.03955555
  H     -1.88408331      5.63874272     -1.08100955
  H     -2.11526130      6.21529278      0.56397122
  C     -0.08927342      5.67347139      0.08009249
  H      0.16943257      6.70032207     -0.18436339
  H      0.25384686      5.47471921      1.09570826
  H      0.43595543      4.99709245     -0.59832753
  C     -2.46155171      3.96878985      2.28056025
  H     -1.52357785      4.34449985      2.69912941
  H     -2.61193072      2.97219487      2.70858892
  C     -3.60646190      4.87336489      2.73527678
  H     -3.56356876      4.98920232      3.81983605
  H     -3.53574277      5.86359994      2.28443284
  H     -4.57355357      4.44122197      2.47875133
  P     -0.69798046      0.28999625     -4.38034611
  C     -2.05862325     -0.83259904     -5.02508794
  H     -2.96400459     -0.61037077     -4.45335726
  H     -2.27022434     -0.60443250     -6.07425889
  C     -1.75120275     -2.32418291     -4.90330185
  H     -2.63638020     -2.90899259     -5.15926276
  H     -0.94174387     -2.61205973     -5.57510217
  H     -1.45002614     -2.57420991     -3.88445384
  C      0.57526737     -0.04389869     -5.73894410
  H      0.86089146     -1.09851959     -5.67153385
  H      0.13863824      0.10495340     -6.73017464
  C      1.83428811      0.80653108     -5.59419558
  H      2.55096746      0.55768481     -6.37856441
  H      1.59993198      1.86950958     -5.66268993
  H      2.30158956      0.61562461     -4.62521794
  C     -1.40596022      1.94685059     -4.90068382
  H     -0.74482352      2.71984011     -4.49530127
  H     -2.35953346      2.05549979     -4.37345197
  C     -1.62809179      2.21297132     -6.38884426
  H     -2.11278040      3.18345787     -6.51041162
  H     -0.68248927      2.23720980     -6.93001244
  H     -2.26840332      1.45502559     -6.84023413
