146
Energy =   -192.65933531 au
 Co     -1.17832108     -1.71459942     -0.21595215
 Co     -0.17873930      1.64001093     -0.15635553
 Co     -2.72721406      0.34069410     -0.05526343
 Co     -0.64527548     -0.58846467      2.52664396
 Co      1.17739611     -1.18915747      0.60693064
 Co     -0.49225504     -0.63681489     -2.27627525
 Te      1.59870895      0.25659275     -1.29762559
 Te     -1.66709753      1.48879908      1.82180825
 Te     -1.75289669      1.43141930     -1.99753913
 Te     -0.23147811     -2.83851794      1.70873599
 Te     -2.74213478     -1.46326764      1.61704000
 Te     -2.83554341     -1.24047953     -1.90720643
 Te      1.15519912      0.92498654      1.77503928
 Te      0.81112456     -2.50064010     -1.38071531
  P     -0.03379965      3.80399102     -0.57199101
  C      0.52364987      4.51138094     -2.22154023
  H     -0.14969459      4.12198183     -2.99181409
  H      0.44980817      5.60223090     -2.24632631
  C      1.95636550      4.10083073     -2.55934614
  H      2.19366182      4.36060917     -3.59217608
  H      2.66926031      4.60331418     -1.90490126
  H      2.07990899      3.02387455     -2.43491700
  C      1.06421692      4.84861701      0.55271706
  H      2.08989735      4.47996213      0.44307874
  H      1.06996494      5.89889221      0.24721046
  C      0.67396311      4.74525725      2.02682868
  H      1.37412576      5.31468008      2.64054502
  H     -0.33055948      5.13393830      2.19697965
  H      0.69865282      3.70350973      2.35294984
  C     -1.67640382      4.69934167     -0.40289181
  H     -2.13477152      4.35604145      0.53092209
  H     -2.31512317      4.32550056     -1.21002045
  C     -1.69656645      6.22784551     -0.42652844
  H     -2.72913084      6.57504322     -0.35666760
  H     -1.14178790      6.64392716      0.41397003
  H     -1.26950063      6.61692350     -1.35073855
  P     -0.02218389     -0.98763880      4.57414560
  C     -1.08835705     -2.17314833      5.57069036
  H     -0.96355110     -3.17684115      5.15161108
  H     -0.77506407     -2.21450246      6.61781175
  C     -2.56816338     -1.79284646      5.50634758
  H     -3.17147931     -2.53330382      6.03412641
  H     -2.73859945     -0.81736596      5.96398591
  H     -2.90386862     -1.74797379      4.46704653
  C      0.09781912      0.41401710      5.82765574
  H     -0.87624143      0.91348553      5.85274209
  H      0.28592172      0.03510277      6.83649130
  C      1.16528428      1.44493642      5.46290870
  H      1.08006613      2.32170567      6.10688968
  H      2.16583561      1.02679033      5.57833560
  H      1.05060330      1.76346688      4.42366383
  C      1.65418501     -1.80455281      4.78296113
  H      2.39942461     -1.13824853      4.33562938
  H      1.64387996     -2.70830228      4.16402002
  C      2.11082209     -2.17706623      6.19369308
  H      3.10228894     -2.63102486      6.14451344
  H      2.17099050     -1.29850391      6.83576184
  H      1.43042209     -2.89533390      6.65094382
  P     -0.00460979     -0.26254442     -4.34460358
  C     -1.40344062     -0.29359574     -5.59824110
  H     -2.07192103      0.54519371     -5.37761805
  H     -1.02004946     -0.14668192     -6.61202619
  C     -2.20931577     -1.59153849     -5.55596714
  H     -3.03635491     -1.54161498     -6.26605018
  H     -1.58403903     -2.44808804     -5.81094109
  H     -2.62020459     -1.74799184     -4.55494369
  C      1.20511146     -1.40162809     -5.22514224
  H      0.79272347     -2.41519659     -5.18897144
  H      1.29807438     -1.13407036     -6.28178874
  C      2.59065623     -1.42016028     -4.58107974
  H      3.23240255     -2.13880299     -5.09352262
  H      3.06072875     -0.43758549     -4.63215819
  H      2.51536405     -1.71044265     -3.53098629
  C      0.72638854      1.41854175     -4.72635934
  H      1.63205023      1.51654717     -4.11974426
  H      0.01819203      2.16100171     -4.34282077
  C      1.06596773      1.76197706     -6.17629128
  H      1.49620063      2.76440193     -6.21545330
  H      1.79380271      1.06387110     -6.58932879
  H      0.17607304      1.74969255     -6.80528446
  P      3.68609478      1.35796093      0.47741103
  C      4.91993060      2.13816368     -0.75161289
  H      4.69296065      3.20800428     -0.78877268
  H      5.95076387      2.03597097     -0.40216795
  C      4.82952696      1.56588648     -2.16489387
  H      5.41061317      2.17909314     -2.85612846
  H      5.21825347      0.54752331     -2.19808226
  H      3.79465704      1.54102548     -2.50827434
  C      4.52100779     -0.32487617      0.56235663
  H      4.52306421     -0.73923101     -0.44983246
  H      5.56598862     -0.20638740      0.86289075
  C      3.85523315     -1.33541981      1.48814761
  H      4.38296912     -2.28958838      1.45146873
  H      3.84703163     -0.98104944      2.51905220
  H      2.80017927     -1.50782731      1.17168880
  C      4.36745741      2.11661318      2.08257645
  H      3.96253106      1.50312927      2.89401556
  H      3.89039756      3.09748415      2.18326438
  C      5.87355261      2.28157227      2.28806396
  H      6.06568623      2.62752969      3.30571980
  H      6.40161488      1.33823677      2.14612065
  H      6.28592661      3.01801878      1.59814145
  P     -4.67229100      1.20049532      0.31316635
  C     -5.95805837      0.07169438      1.09013546
  H     -5.61755090     -0.17932345      2.09979522
  H     -6.92167553      0.58021330      1.18552434
  C     -6.15968006     -1.22499227      0.30695506
  H     -6.86304004     -1.87308073      0.83226944
  H     -6.55234691     -1.02345185     -0.69016370
  H     -5.21171545     -1.75666793      0.20493313
  C     -5.68015418      1.76864465     -1.17180235
  H     -5.71996232      0.93360057     -1.87905918
  H     -6.71171159      1.98578294     -0.87864814
  C     -5.09174384      2.98096842     -1.89148567
  H     -5.69288981      3.22161741     -2.77002894
  H     -5.06791053      3.85416674     -1.23888011
  H     -4.07158678      2.76634704     -2.21895483
  C     -4.83104140      2.68018819      1.45627703
  H     -4.14937608      3.45112449      1.08307063
  H     -4.42355690      2.37030238      2.42417055
  C     -6.21079011      3.30298901      1.67002419
  H     -6.12143056      4.14831500      2.35480560
  H     -6.62992812      3.66841813      0.73296567
  H     -6.90611508      2.58568417      2.10537405
  P      0.66343911     -4.99050759     -0.17883816
  C      1.15953679     -5.87764384     -1.77782879
  H      2.03131442     -5.36468437     -2.19405031
  H      1.43636831     -6.92219320     -1.61317963
  C      0.02248688     -5.81299567     -2.79811952
  H      0.32831922     -6.27023879     -3.74053319
  H     -0.86025084     -6.33664414     -2.42857111
  H     -0.24912040     -4.77307162     -2.99000979
  C     -0.12660710     -6.50292342      0.68064554
  H     -1.11654477     -6.62840127      0.23123990
  H      0.44011873     -7.41232805      0.46054497
  C     -0.28832192     -6.36710904      2.19201089
  H     -0.85307812     -7.21499183      2.58417994
  H      0.68247714     -6.34024151      2.68796295
  H     -0.82087881     -5.44787859      2.43931944
  C      2.33039498     -4.93574123      0.66705883
  H      2.16216479     -4.62404959      1.70177345
  H      2.89944032     -4.13075415      0.19168156
  C      3.17813573     -6.20828240      0.66147572
  H      4.10056566     -6.02962413      1.21722122
  H      2.65251122     -7.03799659      1.13383016
  H      3.44503406     -6.49943472     -0.35424935
