146
Energy =   -192.72986612 au
 Co     -1.46163228     -1.76789534     -0.82850730
 Co      1.02201858      1.35137490      1.11179469
 Co     -1.98570109      0.83320783      0.73103141
 Co      0.07028050     -1.51302073      1.75289302
 Co      1.61854036     -1.16076783     -0.88442809
 Co     -0.17399097      1.15921165     -1.71608580
 Te      2.17110821      1.20161762     -1.00427229
 Te     -0.65095132      0.59454269      2.73990339
 Te     -0.67409057      2.74620915      0.05449668
 Te      0.41726727     -3.09698860     -0.06753397
 Te     -2.33805823     -1.45419262      1.44350256
 Te     -2.44501674      0.28931696     -1.62807061
 Te      2.34245763     -0.65955445      1.39253964
 Te     -0.06358440     -1.08504507     -2.67487791
  P      0.41376534      2.56749163     -3.22527886
  C     -1.03616574      3.14212180     -4.29084333
  H     -1.73282268      3.69498806     -3.65221410
  H     -0.69513026      3.82720242     -5.07169353
  C     -1.78177505      1.98026179     -4.94524806
  H     -2.62474365      2.35636316     -5.52717837
  H     -1.12326373      1.41913096     -5.60967500
  H     -2.16539003      1.29892135     -4.18173520
  C      1.60432157      2.10112186     -4.60659725
  H      1.44419213      1.03894918     -4.81899490
  H      1.35596357      2.64734585     -5.52147402
  C      3.08285913      2.31782057     -4.28713804
  H      3.70164522      1.82544417     -5.03913503
  H      3.33252411      3.37873604     -4.27997369
  H      3.32481245      1.90306976     -3.30643189
  C      1.08692096      4.22936767     -2.68342020
  H      2.08203881      4.05540092     -2.26368473
  H      0.46138723      4.56775821     -1.85107148
  C      1.16939988      5.34456200     -3.72577719
  H      1.70482354      6.19568655     -3.30116013
  H      1.70016652      5.01962768     -4.62046822
  H      0.17439140      5.68098599     -4.01653687
  P      1.41374019      3.12172173      2.26842950
  C      2.04995262      4.64229920      1.36061021
  H      1.26294673      4.96307224      0.67153210
  H      2.22330225      5.46201219      2.06389823
  C      3.33340700      4.39796292      0.56895081
  H      3.56316389      5.26909976     -0.04689248
  H      4.17601623      4.21562079      1.23692768
  H      3.22084491      3.53025017     -0.08563185
  C      2.78318598      3.00289603      3.56591026
  H      3.72316303      2.80193632      3.04226372
  H      2.91127245      3.94875235      4.09875976
  C      2.53794061      1.87305484      4.56132496
  H      3.34814127      1.82353790      5.29055095
  H      1.59672695      2.01330885      5.09416589
  H      2.49355355      0.92247528      4.02762959
  C      0.03503574      3.92596582      3.25528176
  H     -0.48468872      3.12835180      3.79488519
  H     -0.68035719      4.31871826      2.52551195
  C      0.39267242      5.03393406      4.24483564
  H     -0.52646669      5.44526329      4.66632664
  H      0.99785029      4.64972421      5.06568871
  H      0.93634942      5.84549332      3.76134008
  P      0.95149957     -2.67574150      3.31637322
  C      2.35056890     -3.89279103      3.03412616
  H      3.07153404     -3.40411621      2.37124539
  H      2.86975973     -4.09323896      3.97581461
  C      1.92719606     -5.22502981      2.41775080
  H      2.81049348     -5.79443192      2.12385675
  H      1.35369304     -5.82113585      3.12785036
  H      1.31486189     -5.05334648      1.52992476
  C     -0.26903904     -3.79955824      4.21666055
  H     -0.65077230     -4.52673679      3.49319070
  H      0.22947521     -4.36619672      5.00792503
  C     -1.45772894     -3.03648708      4.79881436
  H     -2.15781230     -3.73280415      5.26345785
  H     -1.13575835     -2.31519419      5.55059998
  H     -1.98218335     -2.49666124      4.00608332
  C      1.68031603     -1.70456484      4.74809697
  H      1.02450273     -0.84602156      4.92633786
  H      2.63040503     -1.29923177      4.38542473
  C      1.92351160     -2.42366185      6.07493022
  H      2.44676483     -1.75100346      6.75700321
  H      0.98409761     -2.71626875      6.54285851
  H      2.53634281     -3.31522525      5.94093857
  P     -2.56826685     -3.60798937     -0.70342601
  C     -2.14274212     -4.79221742     -2.11181646
  H     -1.12282784     -5.15216287     -1.94389297
  H     -2.80633142     -5.66095931     -2.10601115
  C     -2.21674908     -4.12758072     -3.48515886
  H     -1.88686789     -4.82450380     -4.25733198
  H     -3.23762728     -3.81664089     -3.71144446
  H     -1.57256390     -3.24463966     -3.51690777
  C     -4.43956714     -3.52884481     -0.97595066
  H     -4.62121086     -2.75893249     -1.73289327
  H     -4.80536582     -4.47278019     -1.39063517
  C     -5.24884594     -3.18581550      0.27290681
  H     -6.27433232     -2.93408626     -0.00272079
  H     -5.27555777     -4.02739674      0.96528231
  H     -4.80664698     -2.33351067      0.79273054
  C     -2.47841915     -4.78819803      0.74903621
  H     -2.95109943     -4.29271322      1.60123500
  H     -1.42222337     -4.90555475      1.00746550
  C     -3.09582888     -6.17537050      0.57488948
  H     -3.08031020     -6.69640028      1.53401490
  H     -4.13038687     -6.11521668      0.23732893
  H     -2.53016083     -6.77007120     -0.14210980
  P      3.31377590     -1.85137237     -2.01195961
  C      3.57553140     -1.46399748     -3.82975313
  H      3.47539417     -0.38308923     -3.95819410
  H      4.59438657     -1.72783916     -4.12817584
  C      2.59372340     -2.16302505     -4.76774791
  H      2.73180203     -1.80071403     -5.78777808
  H      2.74329130     -3.24297920     -4.75918099
  H      1.56574996     -1.95305248     -4.46115781
  C      3.71876730     -3.68540185     -2.06000368
  H      2.88973895     -4.19757779     -2.55869713
  H      4.61555219     -3.87008878     -2.65840993
  C      3.89071591     -4.29297721     -0.67011050
  H      4.06687250     -5.36700015     -0.74712912
  H      4.72833626     -3.84032467     -0.13890021
  H      2.98146010     -4.13248450     -0.08785687
  C      4.90197130     -1.13126003     -1.31237190
  H      4.85701613     -1.25660361     -0.22468935
  H      4.85174596     -0.05127035     -1.49045545
  C      6.24291877     -1.65993705     -1.82040196
  H      7.05195275     -1.11533144     -1.33012190
  H      6.36238057     -2.71926799     -1.59499411
  H      6.34426801     -1.52057005     -2.89662614
  P     -3.80244996      1.96001838      0.58328386
  C     -5.41101559      0.98715839      0.72122715
  H     -5.26469371      0.22055019      1.48909099
  H     -6.22381528      1.63498321      1.06034746
  C     -5.84551369      0.30927969     -0.57681259
  H     -6.68899571     -0.35589487     -0.38499396
  H     -6.15053402      1.04788357     -1.31854622
  H     -5.02707236     -0.27497038     -1.00000992
  C     -4.31277112      3.15058689     -0.77508268
  H     -4.13851867      2.63891519     -1.72634223
  H     -5.38933875      3.33555456     -0.70409000
  C     -3.58889827      4.49518838     -0.80749595
  H     -3.86228909      5.03706803     -1.71465772
  H     -3.85372888      5.10825670      0.05400323
  H     -2.50780900      4.34580069     -0.80154574
  C     -3.94539509      3.05773032      2.11437068
  H     -3.13683262      3.79295413      2.04302563
  H     -3.70663786      2.43130127      2.98094894
  C     -5.26131299      3.78917730      2.38129816
  H     -5.12708263      4.47932263      3.21632129
  H     -5.58263075      4.36344828      1.51279147
  H     -6.05346304      3.08904743      2.64580777
