146
Energy =   -192.73121343 au
 Co      0.16075585     -2.13514711      0.15895608
 Co      0.28333401      2.28214899     -0.08262834
 Co     -2.07256718     -0.01080666     -0.22373153
 Co     -0.11490703      0.19181196      2.12538974
 Co      2.32058380      0.01563398     -0.05398662
 Co      0.13725429      0.07688024     -2.28675521
 Te      1.89617233      1.67192676     -1.78996076
 Te     -1.68436976      1.87927424      1.27717475
 Te     -1.45451562      1.83816404     -1.68277955
 Te      1.73734385     -1.36278792      1.86648874
 Te     -1.71128174     -1.57444518      1.60204240
 Te     -1.30101645     -1.79839375     -1.72927453
 Te      1.81549028      1.60268231      1.70613426
 Te      1.67668224     -1.68119668     -1.70156922
  P      0.46343140     -4.09225826      0.98128177
  C      2.06254665     -5.02887768      0.66883336
  H      2.87315681     -4.48112483      1.15754637
  H      2.01979478     -6.01993166      1.12938918
  C      2.39341796     -5.19298622     -0.81355576
  H      3.38166259     -5.64132213     -0.92807275
  H      1.66210871     -5.83490332     -1.30624988
  H      2.39121238     -4.22212645     -1.31569193
  C     -0.74753103     -5.38189229      0.32137754
  H     -0.73588181     -5.30612072     -0.77081459
  H     -0.41895215     -6.39389830      0.57479392
  C     -2.18159567     -5.17709062      0.80534309
  H     -2.86636075     -5.80295398      0.23088786
  H     -2.27990204     -5.43466113      1.86007733
  H     -2.47796889     -4.13343267      0.68502427
  C      0.30046536     -4.34974523      2.83002077
  H     -0.65582523     -3.90843608      3.12866838
  H      1.07902348     -3.74264695      3.30250277
  C      0.38266629     -5.77324411      3.38018525
  H      0.21473821     -5.74985262      4.45852473
  H     -0.37239922     -6.41928190      2.93333276
  H      1.36422121     -6.21120186      3.20005800
  P     -0.49197749      0.60616773     -4.27121992
  C     -2.27736910      0.61769644     -4.85229894
  H     -2.83077769      1.28863924     -4.18932305
  H     -2.33977318      1.03724397     -5.86118113
  C     -2.95556937     -0.75164553     -4.85052861
  H     -4.02625045     -0.63575547     -5.02756705
  H     -2.54612494     -1.39192186     -5.63250062
  H     -2.81184638     -1.25129942     -3.89060379
  C      0.21893209     -0.50737193     -5.62282741
  H     -0.23167198     -1.49793349     -5.50581320
  H     -0.05918678     -0.14548881     -6.61635564
  C      1.73500433     -0.65882418     -5.53077626
  H      2.09646226     -1.32495263     -6.31588924
  H      2.23441316      0.30491654     -5.63685392
  H      2.00625346     -1.08603632     -4.56253308
  C      0.02073927      2.31430663     -4.85562060
  H      1.00846046      2.51886506     -4.42903510
  H     -0.66883498      3.01983321     -4.38044754
  C      0.05940969      2.59371705     -6.35739587
  H      0.27521881      3.65122774     -6.52057002
  H      0.83926294      2.00985378     -6.84568816
  H     -0.89515171      2.36492626     -6.83175131
  P      4.40023005     -0.30901352     -0.42973087
  C      5.25103133      0.28691007     -1.99021662
  H      5.22401315      1.38121522     -1.99063819
  H      6.30196237     -0.01665304     -1.98168462
  C      4.60177733     -0.21300563     -3.27757384
  H      5.20094496      0.08204185     -4.14054192
  H      4.50096706     -1.29858448     -3.27414526
  H      3.60985546      0.22907927     -3.37747776
  C      5.12689770     -2.04027500     -0.34760507
  H      4.52092152     -2.67117319     -1.00538514
  H      6.14677710     -2.05167704     -0.74388591
  C      5.12678585     -2.64837702      1.05422684
  H      5.36707419     -3.71136581      0.99958209
  H      5.86476731     -2.16208782      1.69259420
  H      4.14544104     -2.53475418      1.52118563
  C      5.45257999      0.59772718      0.84123666
  H      5.15520041      0.23297766      1.82985839
  H      5.15414395      1.65081672      0.80695572
  C      6.97434180      0.51562466      0.71461731
  H      7.43512802      1.02878027      1.56068942
  H      7.31900640     -0.51806895      0.71478202
  H      7.31820698      0.99538061     -0.20136912
  P      1.04853254      4.22403720      0.39298369
  C      0.22244803      5.57125102     -0.64930814
  H     -0.83045543      5.63643978     -0.35668966
  H      0.67737040      6.54607195     -0.45378507
  C      0.30000103      5.27837294     -2.14651330
  H     -0.18619946      6.07474760     -2.71229160
  H      1.33677514      5.19946496     -2.47632641
  H     -0.20483266      4.33623543     -2.37064339
  C      2.83702518      4.71742607      0.09615642
  H      3.17338100      4.14114232     -0.77273136
  H      2.88891121      5.77436676     -0.18264395
  C      3.80717016      4.46816340      1.24925154
  H      4.83190027      4.62538354      0.90803800
  H      3.61345947      5.14488073      2.08151651
  H      3.71254105      3.44366672      1.61165438
  C      0.70331357      4.90033101      2.10800263
  H      1.34627480      4.35510574      2.80524288
  H     -0.32503305      4.61749698      2.35910962
  C      0.87365462      6.40283583      2.33260333
  H      0.75843861      6.62583988      3.39492390
  H      1.86016254      6.74244431      2.01726068
  H      0.12091713      6.96839742      1.78373488
  P     -0.93468701      0.22853999      4.10480397
  C     -2.76550980      0.32721704      4.49693813
  H     -3.27625331     -0.35335602      3.80878549
  H     -2.95018501     -0.04592589      5.50867251
  C     -3.38098615      1.71954031      4.37275787
  H     -4.46848118      1.65069122      4.43204224
  H     -3.03143578      2.37520436      5.17060044
  H     -3.11346083      2.16701503      3.41270234
  C     -0.30175562      1.55014737      5.29207749
  H     -0.61949964      2.52298411      4.90352396
  H     -0.75536915      1.43629788      6.28074428
  C      1.22028634      1.55959661      5.42230399
  H      1.53647631      2.38912990      6.05694766
  H      1.58550476      0.62975331      5.85945975
  H      1.68144422      1.68107149      4.43838347
  C     -0.52281704     -1.35213783      5.03926561
  H      0.50433005     -1.62877640      4.77833243
  H     -1.16508798     -2.12963460      4.61173322
  C     -0.66818680     -1.36854612      6.56071036
  H     -0.49465419     -2.38185503      6.92750381
  H      0.05858742     -0.70845338      7.03302776
  H     -1.66713517     -1.06197949      6.87099444
  P     -4.16518101     -0.48856573     -0.29483959
  C     -4.82833220     -2.24251689     -0.25166936
  H     -4.33442995     -2.75271707      0.58107863
  H     -5.89984635     -2.22901986     -0.03061914
  C     -4.60822768     -3.04795781     -1.52989587
  H     -4.90981581     -4.08485581     -1.37236116
  H     -5.19061024     -2.63825362     -2.35571073
  H     -3.55284962     -3.03138862     -1.81191666
  C     -5.24726132      0.20080111     -1.67316893
  H     -4.89634232     -0.22768291     -2.61695213
  H     -6.28597024     -0.11810124     -1.54685594
  C     -5.18713127      1.72316724     -1.78223166
  H     -5.75687729      2.05922901     -2.65011789
  H     -5.59865118      2.19892587     -0.89154980
  H     -4.15126048      2.05236763     -1.89922677
  C     -5.03399250      0.17621612      1.23374376
  H     -4.66123050      1.19188451      1.40281975
  H     -4.66987311     -0.42439364      2.07431979
  C     -6.56197117      0.19740800      1.27003065
  H     -6.89134739      0.55877244      2.24601205
  H     -6.96682620      0.86305163      0.50842838
  H     -6.97994872     -0.79770168      1.11835138
