146
Energy =   -192.73161378 au
 Co     -0.15867028     -2.16635846      0.16664318
 Co      0.61500635      2.19355318     -0.12510023
 Co     -2.03256565      0.26951212     -0.32168819
 Co     -0.14767801      0.22512939      2.08975482
 Co      2.29387799     -0.35478243     -0.01460744
 Co      0.22673061     -0.02317912     -2.30900132
 Te      2.16923881      1.33105146     -1.77176472
 Te     -1.43503906      2.10374841      1.16960798
 Te     -1.10317674      1.96865450     -1.79169518
 Te      1.46559417     -1.58930316      1.91124195
 Te     -1.96829741     -1.29981622      1.53318119
 Te     -1.49797587     -1.64673343     -1.76704980
 Te      1.98755480      1.32167225      1.70771226
 Te      1.46482395     -1.98498653     -1.64749146
  P     -4.16564878      0.05854926     -0.41660924
  C     -5.04099373     -1.60026117     -0.42010190
  H     -4.57376719     -2.20992092      0.35979850
  H     -6.09024677     -1.46880340     -0.13944926
  C     -4.98512960     -2.35684696     -1.74527947
  H     -5.39536103     -3.35998424     -1.61744820
  H     -5.56087757     -1.84243139     -2.51513560
  H     -3.95153075     -2.44583696     -2.08686680
  C     -5.12052912      0.90955406     -1.80018353
  H     -4.82421871      0.44469543     -2.74523966
  H     -6.19638195      0.74661871     -1.68960797
  C     -4.83238682      2.40692268     -1.88991383
  H     -5.33673027      2.83440576     -2.75805761
  H     -5.17622589      2.92935927     -0.99665023
  H     -3.75762324      2.57795064     -1.99506228
  C     -4.97609328      0.80481508      1.10641974
  H     -4.46700913      1.75177065      1.31404684
  H     -4.72872761      0.13718517      1.93873551
  C     -6.48530042      1.04668901      1.09910637
  H     -6.79420729      1.40980911      2.08109105
  H     -6.76182331      1.79679079      0.35885234
  H     -7.03717506      0.13088974      0.88727059
  P     -0.07210075     -4.10964400      1.07340747
  C      1.47565907     -5.17164120      1.01628082
  H      2.25223292     -4.65142778      1.58393956
  H      1.29926175     -6.12939416      1.51482512
  C      1.98649611     -5.44115110     -0.39814566
  H      2.96467380     -5.92302189     -0.35646124
  H      1.30234025     -6.09432131     -0.94106594
  H      2.08153454     -4.50646800     -0.95643543
  C     -1.28446947     -5.34391265      0.31621147
  H     -0.99469470     -5.49938412     -0.72781251
  H     -1.21833036     -6.31543058      0.81344434
  C     -2.72707618     -4.84470818      0.34618292
  H     -3.38995542     -5.57456819     -0.12133805
  H     -3.06372716     -4.67336359      1.36926582
  H     -2.80496317     -3.90393412     -0.20151502
  C     -0.47287748     -4.26556032      2.89843167
  H     -1.32912505     -3.61269940      3.09536095
  H      0.37461738     -3.83336043      3.43998432
  C     -0.77240588     -5.65129619      3.46864515
  H     -0.89990276     -5.57245292      4.54992427
  H     -1.69107203     -6.06047659      3.04895977
  H      0.04098911     -6.35007337      3.27326740
  P      4.33294303     -0.85663426     -0.41628928
  C      5.22185336     -0.45716219     -2.01605880
  H      5.29089594      0.63212055     -2.09630354
  H      6.24146829     -0.85233429     -1.98389523
  C      4.52447436     -0.98913637     -3.26432280
  H      5.14266632     -0.81076233     -4.14571964
  H      4.32812836     -2.05841868     -3.18326817
  H      3.57522991     -0.47007067     -3.39598849
  C      4.91078475     -2.63419516     -0.20666106
  H      4.27715275     -3.25347991     -0.84914755
  H      5.93897938     -2.75454612     -0.56070534
  C      4.80847234     -3.14744988      1.22873966
  H      4.95108649     -4.22905224      1.25076323
  H      5.56600742     -2.68715296      1.86367346
  H      3.82627635     -2.91653804      1.64874389
  C      5.47275473      0.04814569      0.77836395
  H      5.13841704     -0.19277412      1.79274593
  H      5.28396323      1.11853955      0.64542036
  C      6.97823450     -0.19983817      0.67670771
  H      7.48831470      0.34914338      1.47043713
  H      7.21582017     -1.25743340      0.78792793
  H      7.36979401      0.14488355     -0.28001278
  P     -0.97874511      0.44934269      4.05223024
  C     -2.78797965      0.79915797      4.39840413
  H     -3.37000837      0.17405794      3.71419187
  H     -3.04218064      0.48107924      5.41379415
  C     -3.20995396      2.25688556      4.22610810
  H     -4.29795718      2.33436085      4.26010403
  H     -2.79341938      2.88133878      5.01683934
  H     -2.86456005      2.63937916      3.26280134
  C     -0.19930816      1.71804792      5.20780062
  H     -0.36613645      2.70802587      4.77119348
  H     -0.69256968      1.71112636      6.18398748
  C      1.30463926      1.52167507      5.39061339
  H      1.71578897      2.32824322      5.99993410
  H      1.52297736      0.57178809      5.87951015
  H      1.80639520      1.53134974      4.41930782
  C     -0.79343921     -1.13811828      5.04600818
  H      0.19900891     -1.54671359      4.82735878
  H     -1.51377219     -1.84535336      4.62094118
  C     -0.98504407     -1.08748008      6.56161733
  H     -0.92544092     -2.10001456      6.96509750
  H     -0.21047908     -0.48716161      7.03773258
  H     -1.95719367     -0.67272931      6.82827402
  P      1.52388053      4.04736116      0.43757020
  C      0.84213223      5.49158638     -0.57684935
  H     -0.21094627      5.63048791     -0.31169352
  H      1.36611031      6.41979459     -0.33329785
  C      0.94349403      5.24471103     -2.08125393
  H      0.51821197      6.08654011     -2.63004246
  H      1.98304307      5.11959178     -2.38709908
  H      0.39280661      4.34099053     -2.35268387
  C      3.35586215      4.38042437      0.18314529
  H      3.65045008      3.81273774     -0.70636902
  H      3.51568202      5.43845571     -0.04585065
  C      4.27345392      3.98388767      1.33796535
  H      5.31524122      4.03880274      1.01732687
  H      4.13994689      4.64724971      2.19258210
  H      4.05990771      2.96363087      1.66034684
  C      1.21201798      4.69848309      2.16709933
  H      1.79227193      4.07749916      2.85581267
  H      0.15838816      4.50107979      2.39400888
  C      1.51203343      6.17180947      2.44225255
  H      1.39758288      6.37114690      3.50933977
  H      2.53079110      6.43046722      2.15364877
  H      0.82309986      6.81957711      1.90050093
  P     -0.27343715      0.53710176     -4.32235462
  C     -2.01389823      0.86918441     -4.94377833
  H     -2.43851199      1.65881389     -4.31779974
  H     -1.97889049      1.25220010     -5.96834036
  C     -2.94204485     -0.34426697     -4.90932868
  H     -3.96985952     -0.03108510     -5.10071514
  H     -2.65958986     -1.07463754     -5.66815584
  H     -2.90099414     -0.83309768     -3.93441283
  C      0.22395683     -0.73004305     -5.63422017
  H     -0.41062154     -1.61116989     -5.49648124
  H      0.02685533     -0.34891890     -6.63994426
  C      1.68102184     -1.16962050     -5.52294370
  H      1.90783750     -1.92043391     -6.28169206
  H      2.35790581     -0.32527289     -5.65815935
  H      1.86201942     -1.60736296     -4.53844924
  C      0.56872423      2.09850964     -4.93527428
  H      1.58060578      2.10403591     -4.51645102
  H      0.04152893      2.93565614     -4.46539493
  C      0.65135333      2.34486423     -6.44103346
  H      1.08990069      3.32822268     -6.62044788
  H      1.28060325      1.59973339     -6.92719725
  H     -0.33492176      2.32340394     -6.90491984
