146
Energy =   -192.73235907 au
 Co      0.34123739     -2.08420053     -0.26482756
 Co     -0.36583532      2.19486945      0.70095608
 Co     -2.16359521     -0.54805450      0.56371342
 Co      0.28096518     -0.26864030      2.34129362
 Co      1.93478062      0.51229698     -0.40456880
 Co     -0.69952145      0.47526676     -1.93469649
 Te      0.72552451      2.36969403     -1.45186629
 Te     -1.78789923      1.07312476      2.31447295
 Te     -2.36944116      1.61368707     -0.53271718
 Te      2.14897906     -1.30259901      1.20475501
 Te     -0.92935946     -2.29506353      1.77622542
 Te     -1.68822240     -1.70830078     -1.52678778
 Te      1.76742442      1.56584058      1.76811398
 Te      1.22956785     -0.95619105     -2.22752047
  P     -3.75932559     -1.96944460      0.75563780
  C     -3.67724812     -3.80291998      0.36249614
  H     -2.63519598     -4.10952967      0.48995366
  H     -4.25933769     -4.36224948      1.10037413
  C     -4.14046924     -4.21241733     -1.03413548
  H     -3.88876846     -5.25999449     -1.20915385
  H     -5.21831749     -4.09433039     -1.14529160
  H     -3.63903067     -3.60712116     -1.79042051
  C     -5.34741565     -1.49626844     -0.15326960
  H     -5.16041598     -1.58376746     -1.22690107
  H     -6.16163716     -2.18437371      0.08850283
  C     -5.77995395     -0.06229090      0.14547597
  H     -6.64003621      0.20677618     -0.46979065
  H     -6.05348925      0.05590545      1.19461189
  H     -4.96397518      0.63159818     -0.07695159
  C     -4.39426381     -2.05735321      2.53253511
  H     -4.37815694     -1.03998784      2.93618772
  H     -3.64291390     -2.62224155      3.09370093
  C     -5.77317862     -2.66437555      2.78864727
  H     -5.93184706     -2.75584964      3.86481060
  H     -6.56272518     -2.03237206      2.38300754
  H     -5.86242565     -3.65697418      2.34674798
  P      3.47038142      1.12283472     -1.77653890
  C      3.25684036      1.47731786     -3.60757751
  H      2.22762643      1.82009917     -3.74810361
  H      3.90505798      2.30918255     -3.89718714
  C      3.51688405      0.30700013     -4.55375727
  H      3.20458631      0.57800636     -5.56392811
  H      4.57446431      0.04438486     -4.57885907
  H      2.94343658     -0.56608016     -4.23767541
  C      4.99093627      0.00192871     -1.82664270
  H      4.69308969     -0.94507210     -2.28597927
  H      5.78017349      0.42845002     -2.45118205
  C      5.53888138     -0.28762609     -0.43052284
  H      6.33332256     -1.03364071     -0.48496266
  H      5.94244777      0.61566224      0.02823098
  H      4.74431624     -0.67383374      0.21448998
  C      4.26019390      2.75172218     -1.23541057
  H      4.34009006      2.72852394     -0.14384783
  H      3.53175473      3.53377641     -1.47301003
  C      5.61960689      3.13770725     -1.81740727
  H      5.87331471      4.15026203     -1.49801828
  H      6.40288481      2.46629624     -1.46665170
  H      5.60947014      3.11827490     -2.90732944
  P     -1.74546521      0.94034563     -3.74367638
  C     -1.46537346      2.60423838     -4.57091956
  H     -0.41571735      2.66267476     -4.87685649
  H     -2.07476624      2.68542538     -5.47557037
  C     -1.77448328      3.78836605     -3.65773322
  H     -1.64998960      4.72608216     -4.20162031
  H     -2.79521593      3.73689886     -3.27739034
  H     -1.08595254      3.78740312     -2.81021895
  C     -3.61870543      0.88196464     -3.86584838
  H     -4.00548294      1.41122148     -2.98889589
  H     -3.96153866      1.43047651     -4.74871273
  C     -4.21730209     -0.52370264     -3.89107627
  H     -5.29634263     -0.47040434     -3.73705715
  H     -4.03004274     -1.01298764     -4.84715614
  H     -3.78114195     -1.13959690     -3.10247096
  C     -1.22802233     -0.20157491     -5.14420202
  H     -1.52954973     -1.21520742     -4.86009876
  H     -0.13259421     -0.20773123     -5.16163490
  C     -1.74436124      0.10165425     -6.55100503
  H     -1.43982527     -0.69791196     -7.22877474
  H     -2.83188041      0.16912917     -6.56966364
  H     -1.33257120      1.03886633     -6.92483879
  P      1.52125389     -3.80909496     -0.73763393
  C      1.13028251     -4.67750557     -2.36219607
  H      1.42646865     -4.00584078     -3.17438478
  H      1.72206299     -5.59222788     -2.45706561
  C     -0.34587749     -5.03226734     -2.52956915
  H     -0.51473031     -5.47074521     -3.51448054
  H     -0.66448560     -5.74942126     -1.77194849
  H     -0.96548616     -4.13709920     -2.43725980
  C      1.44321520     -5.30987952      0.39967279
  H      0.44890900     -5.75737399      0.30289190
  H      2.16621223     -6.06791185      0.08457396
  C      1.67570726     -4.96416160      1.86804766
  H      1.64614352     -5.86787224      2.47887437
  H      2.64190114     -4.47817540      2.00903152
  H      0.89354172     -4.28526581      2.21659312
  C      3.37651031     -3.61859537     -0.92008174
  H      3.77723920     -3.43343923      0.08074037
  H      3.54731882     -2.70215802     -1.49294136
  C      4.16848856     -4.75291325     -1.57003570
  H      5.23453805     -4.52823495     -1.50243401
  H      3.99002972     -5.70471109     -1.06940213
  H      3.91116138     -4.85932991     -2.62369041
  P      0.07837477      4.13840054      1.50072435
  C     -1.32141452      5.37272496      1.18929861
  H     -2.17193175      5.08855931      1.81755972
  H     -1.01949689      6.38104604      1.48582531
  C     -1.77605101      5.40078277     -0.26837523
  H     -2.58338352      6.12356665     -0.39716988
  H     -0.95266048      5.67820184     -0.92794379
  H     -2.14251147      4.41536487     -0.56624701
  C      1.50599924      5.17196831      0.84952517
  H      1.59563963      4.93977713     -0.21699350
  H      1.26483204      6.23662922      0.92551644
  C      2.85792401      4.92444132      1.51629514
  H      3.64818648      5.41049793      0.94164836
  H      2.87532873      5.32180918      2.53117871
  H      3.06853065      3.85493282      1.56600002
  C      0.24330107      4.35907038      3.35465166
  H      1.16750910      3.85887909      3.65883409
  H     -0.57677209      3.79695412      3.81335625
  C      0.23225140      5.78136081      3.91587864
  H      0.45649380      5.74966449      4.98371960
  H      0.97837031      6.40881545      3.42894664
  H     -0.74595294      6.24457646      3.78877943
  P     -0.03494583     -0.26676346      4.46593864
  C      1.34843499     -1.17770080      5.38100795
  H      2.26146834     -0.57813985      5.30582165
  H      1.10860026     -1.27489289      6.44344293
  C      1.62421077     -2.56557529      4.80627696
  H      2.41698518     -3.05713190      5.37253895
  H      0.73002852     -3.18921888      4.84534888
  H      1.94258399     -2.48275657      3.76465961
  C     -1.50144497     -1.12924464      5.26285140
  H     -1.73926032     -1.98817468      4.62635386
  H     -1.21535722     -1.52813635      6.24081806
  C     -2.76144140     -0.28130884      5.42750220
  H     -3.60206874     -0.91947388      5.70510525
  H     -2.63077339      0.47309349      6.20334861
  H     -3.00256614      0.22785229      4.49297002
  C      0.02392481      1.35855018      5.39835308
  H     -0.88016859      1.91513971      5.13430184
  H      0.86596589      1.92719841      4.99014576
  C      0.15978689      1.31211178      6.92069299
  H      0.05427086      2.32110146      7.32366481
  H     -0.60716372      0.68257881      7.37120124
  H      1.13738104      0.93041866      7.21433709
