146
Energy =   -192.72892693 au
 Co      1.13574271     -1.86456814     -0.13378475
 Co     -1.74319727      1.41195771      0.18395515
 Co     -1.65717226     -1.50477744     -1.25242044
 Co     -1.35938189     -1.11494959      1.82623238
 Co      1.09855485      0.69984529      1.47884058
 Co      0.44347957      0.73980010     -1.78027066
 Te      0.45060060      2.45658309     -0.05263193
 Te     -3.20802052     -0.53635070      0.32563326
 Te     -1.99063379      0.70912713     -2.12318647
 Te      0.95930424     -1.61302596      2.28562704
 Te     -0.89840321     -3.06150956      0.46673689
 Te      0.44950168     -1.59085438     -2.45477067
 Te     -1.05350858      1.20579311      2.49120171
 Te      2.43053982      0.17623929     -0.49961659
  P     -2.06766527     -3.25597928     -2.41930554
  C     -2.20796684     -3.01704268     -4.28494001
  H     -1.19778244     -2.85248059     -4.67133826
  H     -2.60645299     -3.91746177     -4.76057034
  C     -3.08484211     -1.82984152     -4.67796631
  H     -3.03307137     -1.66755522     -5.75579708
  H     -4.12600988     -2.00651891     -4.40467878
  H     -2.75002377     -0.92046312     -4.17316855
  C     -3.76385484     -4.05729623     -2.15155437
  H     -4.52043297     -3.41449571     -2.61174943
  H     -3.81017123     -5.02344566     -2.66260378
  C     -4.11969712     -4.24302862     -0.67976135
  H     -5.10160051     -4.70928945     -0.58272430
  H     -3.38346372     -4.87238713     -0.17853243
  H     -4.14410623     -3.27381714     -0.17612842
  C     -0.98724077     -4.78596515     -2.34317256
  H     -1.24523208     -5.31151045     -1.41957982
  H      0.04917826     -4.45576238     -2.23018412
  C     -1.06107166     -5.77145115     -3.50887009
  H     -0.45753066     -6.65013121     -3.27366010
  H     -2.08468210     -6.10085789     -3.68908590
  H     -0.67039967     -5.32695199     -4.42404089
  P     -2.51450131      3.40427825      0.11338092
  C     -4.39214593      3.50169533      0.30428736
  H     -4.65184742      3.21307951      1.32765849
  H     -4.74048347      4.52778648      0.15760670
  C     -5.12865118      2.58250737     -0.66821960
  H     -6.20655184      2.66643523     -0.52094217
  H     -4.89628481      2.84192946     -1.70208802
  H     -4.83521201      1.54301610     -0.49966243
  C     -2.34533661      4.47797329     -1.42115663
  H     -2.37716058      3.80045981     -2.28084585
  H     -3.21079405      5.14156997     -1.50999932
  C     -1.07309632      5.31935159     -1.50946323
  H     -0.98691898      5.75496171     -2.50642451
  H     -1.08534308      6.13034532     -0.78134834
  H     -0.19338274      4.70232664     -1.31985098
  C     -1.99223137      4.57140992      1.48340262
  H     -0.93697617      4.81112769      1.31942578
  H     -2.02962303      3.99934489      2.41672037
  C     -2.78732879      5.86507224      1.65918104
  H     -2.29122699      6.49847485      2.39678432
  H     -2.85803400      6.42075516      0.72427901
  H     -3.79627943      5.65635153      2.01448475
  P      2.47980607      1.43334782      2.96046875
  C      3.39771875      2.98236547      2.41411743
  H      2.64930322      3.70223401      2.06606189
  H      3.92799535      3.44191457      3.25267141
  C      4.39531345      2.72570241      1.28539988
  H      4.77112477      3.67242627      0.89406009
  H      5.24148699      2.13735118      1.64193934
  H      3.91972482      2.17601171      0.46861382
  C      3.93375315      0.46920389      3.65661644
  H      4.48308857      0.04703612      2.80935079
  H      4.62397747      1.13941441      4.17791981
  C      3.53019702     -0.66996081      4.59075317
  H      4.39966069     -1.28511929      4.82808794
  H      3.11151723     -0.28654769      5.52140988
  H      2.77764574     -1.30138457      4.11077086
  C      1.67600967      2.06909575      4.53372049
  H      1.15969620      1.22053617      4.99474481
  H      0.88579025      2.76012042      4.22207843
  C      2.54900162      2.75113797      5.58759316
  H      1.93126812      3.01862361      6.44687385
  H      3.34500896      2.09246406      5.93332329
  H      2.99897919      3.66367656      5.19734034
  P      3.03311005     -2.85035061     -0.25303725
  C      4.11300143     -2.79228520     -1.78663388
  H      4.30371995     -1.73742155     -2.00759706
  H      5.08105181     -3.25901016     -1.58193007
  C      3.50097825     -3.45795620     -3.01768016
  H      4.11987773     -3.25894810     -3.89414853
  H      3.42802730     -4.53758166     -2.88320662
  H      2.49888102     -3.06362997     -3.20353955
  C      2.94496943     -4.72217014     -0.02308253
  H      2.36147300     -5.13265967     -0.85344894
  H      3.94028739     -5.17141608     -0.07951770
  C      2.26813073     -5.12760879      1.28475680
  H      2.21570732     -6.21506530      1.35881414
  H      2.81604077     -4.74613387      2.14711449
  H      1.25136783     -4.72862277      1.32052167
  C      4.31495897     -2.37095048      1.02932603
  H      3.78815864     -2.26099341      1.98189589
  H      4.66879150     -1.37183883      0.75433900
  C      5.52024538     -3.28619889      1.24177511
  H      6.19969113     -2.82182607      1.95887238
  H      5.21484285     -4.25250887      1.64226077
  H      6.06770703     -3.45201413      0.31392357
  P      1.08643454      1.89493005     -3.48033056
  C     -0.01214781      3.01042671     -4.51859822
  H     -0.44296733      3.77180481     -3.86190873
  H      0.58412072      3.53538578     -5.27059102
  C     -1.14719590      2.26818695     -5.22040666
  H     -1.79506290      2.97820905     -5.73690519
  H     -0.75925081      1.55618277     -5.94947682
  H     -1.74621110      1.72190214     -4.48713860
  C      1.91930396      0.95790925     -4.87894815
  H      1.18579735      0.25468158     -5.28622910
  H      2.20190230      1.63380382     -5.69127853
  C      3.14217746      0.16440264     -4.42388912
  H      3.53549658     -0.42772671     -5.25170111
  H      3.93137029      0.82478945     -4.06387747
  H      2.86358477     -0.51382827     -3.61593703
  C      2.42843741      3.12148715     -3.00602311
  H      3.17785355      2.56427791     -2.43304457
  H      1.97387508      3.82296938     -2.29821923
  C      3.13192110      3.91259317     -4.10850938
  H      3.89375395      4.55336600     -3.66069233
  H      3.62200042      3.25032264     -4.82163232
  H      2.43037386      4.54746381     -4.64925136
  P     -2.51372776     -1.24757727      3.62150128
  C     -2.98795904     -3.01238049      4.11658552
  H     -2.07892429     -3.53625140      4.42915178
  H     -3.66764475     -2.99823044      4.97320846
  C     -3.63802330     -3.79807510      2.98033048
  H     -3.87961010     -4.80930515      3.31156842
  H     -4.55574300     -3.31430627      2.64322061
  H     -2.95110193     -3.86591810      2.13365583
  C     -4.20917616     -0.47857198      3.84248868
  H     -4.87321698     -0.95043891      3.11145465
  H     -4.59692135     -0.72770035      4.83525728
  C     -4.27912063      1.03281044      3.64628843
  H     -5.28730018      1.39003235      3.86432909
  H     -3.57571775      1.54831265      4.29985608
  H     -4.03608122      1.28783519      2.61479658
  C     -1.64474546     -0.72246026      5.20279006
  H     -1.59309771      0.37010004      5.18527390
  H     -0.60987578     -1.07469847      5.12725595
  C     -2.22443784     -1.17515327      6.54246013
  H     -1.66181637     -0.70905970      7.35358626
  H     -3.26981802     -0.88260584      6.64198312
  H     -2.15260469     -2.25635337      6.65832210
