914
Energy =      0.00000000 au
  O      1.53220696     -0.27475119      0.70204882
  H      0.89394798     -0.68379837      0.11306166
  H      2.28050278      0.04400099      0.19209744
  O     11.87026241      9.49718785      8.03005009
  H     12.52857184      8.95125981      7.59394085
  H     11.74569924      9.19060910      8.93121239
  O      8.23187230     -4.86117749     15.93092075
  H      8.42075101     -5.06569345     16.84966884
  H      7.36919249     -5.21051769     15.69566563
  O      3.92779064     -1.29567107      6.49708415
  H      4.12954978     -0.49588032      6.98823383
  H      3.75002835     -2.01227298      7.11066565
  O      3.82372632     -4.07131303      9.75658899
  H      3.86761748     -3.59799796     10.59064319
  H      3.57924263     -4.98529267      9.91928179
  O      1.77197105     -0.15901906      5.54172130
  H      2.32130787     -0.90754803      5.29772654
  H      0.88710016     -0.28299913      5.19067648
  O      3.74771776      5.21173469     16.24120953
  H      4.53252817      4.77476452     15.90249182
  H      3.38028762      5.78222380     15.56213865
  O      8.59229555      9.08594388     18.36671670
  H      9.20256971      8.39306414     18.10388002
  H      8.84902075      9.43039002     19.22523230
  O      9.01410873      6.72855540     16.34300695
  H      8.26336975      6.16807362     16.13360023
  H      8.88058129      7.59905106     15.96089737
  O      7.67635755     -0.48171896     19.73023238
  H      6.72589609     -0.61655217     19.72367353
  H      7.91021418      0.11669578     20.44354219
  O     -1.28781638      0.67184063      8.45975683
  H     -2.04091021      1.26373225      8.39561635
  H     -1.52195488     -0.08743183      8.99853740
  O     -1.13798101     10.58011985     12.55950025
  H     -2.01353447     10.53126855     12.95016595
  H     -0.72125694     11.40802902     12.80951516
  O      1.36171905      1.70133050      6.73261630
  H      0.46490804      1.54155569      6.42962780
  H      1.35550011      1.86930435      7.67778619
  O      8.50545529     11.47515095     13.83894579
  H      9.01550369     12.16401845     14.27127921
  H      8.58023860     10.65922569     14.33921915
  O     -4.25678240      1.38818322     16.36346012
  H     -4.69504099      0.53662235     16.42959251
  H     -3.30544191      1.26163298     16.38661855
  O      8.64571815     10.85926302      1.44146747
  H      7.95938964     10.70734282      0.78765294
  H      9.47512100     11.04962698      0.99711123
  O      8.83302649     11.04749833      5.79419685
  H      8.48644543     10.29550929      5.30840465
  H      9.73270110     11.22531378      5.51035314
  O      6.71932348     -3.72051247      1.00294433
  H      6.08910839     -3.27703906      1.57544785
  H      7.17583855     -3.07008941      0.46429431
  O      8.60989098      8.77221130     12.49836750
  H      8.42911407      8.47446659     13.39294439
  H      8.90820158      9.68446672     12.51838870
  O      1.27730488     -1.38850574      7.06296500
  H      1.77510064     -2.07082625      7.51929615
  H      0.91611023     -0.77222091      7.70431626
  O      5.49346987      7.95305045      8.41225235
  H      5.84229145      7.76605566      7.53763445
  H      4.98647988      8.76788310      8.38757629
  O     -2.35156830      3.88485657     12.74561594
  H     -2.70931179      4.30515916     13.53108735
  H     -2.55029228      2.94586911     12.76589708
  O     -0.10002674     10.46208850      9.74197786
  H      0.73791419     10.67488273      9.32463673
  H     -0.82130900     10.75716049      9.18136710
  O      5.80657899     -3.22994316      6.80426880
  H      6.29783679     -2.82508582      6.08568943
  H      6.12150621     -4.12618462      6.94273215
  O      0.09732754     -3.57335698      7.78349619
  H      0.28692196     -4.19036982      7.07289847
  H     -0.54106119     -2.92309508      7.48147088
  O      1.43849531     11.04523947     14.10305998
  H      1.31365897     10.46705905     13.34693611
  H      1.74023756     11.90551930     13.80227730
  O      7.73517523      5.07632799      1.22160310
  H      7.33792184      5.43444237      2.01881313
  H      7.48461285      4.15466526      1.12487517
  O      0.45847219      6.21149451     -1.07075431
  H      0.14328599      6.33031854     -1.96971956
  H     -0.15922491      6.61762078     -0.45829064
  O     -1.10308686      0.01367330     17.85990140
  H     -2.02911619     -0.09714312     18.08747425
  H     -0.55908957     -0.46862990     18.48683886
  O     13.08237283      3.10727633     15.74229948
  H     12.32986522      2.81723137     16.26307412
  H     13.77605610      3.41956669     16.32785754
  O      0.05524542      1.39761940     10.94103221
  H      0.44439460      1.98879143     11.58962958
  H     -0.26559048      0.60656582     11.38023441
  O     -1.74825280     -0.76871154      6.10887829
  H     -2.14946744     -0.03699060      5.63431397
  H     -1.94103756     -0.68720872      7.04578348
  O      4.84049911     -1.25104512      9.60405024
  H      5.55758552     -0.65822576      9.36750787
  H      5.13591874     -2.16063764      9.52057149
  O      4.56524923     -1.29332179     21.21690573
  H      3.95683459     -2.00508767     21.00519609
  H      5.02964367     -1.50028021     22.03121895
  O      6.90220444     -0.66348891     15.04954943
  H      6.82549563     -1.45783133     15.58315592
  H      6.99423936      0.10049069     15.62353963
  O      6.37893127      7.86069758      0.91833375
  H      6.11250341      8.62592270      0.40350687
  H      5.70656565      7.17885753      0.85037341
  O      5.98746438     -3.39312100     14.56080443
  H      5.28023991     -3.37632772     13.91184254
  H      6.79459840     -3.70774976     14.14710958
  O     11.48490075      5.94449322      3.13195590
  H     11.27921017      5.97375115      4.06920472
  H     12.42335780      6.10172584      3.00476992
  O     -1.14630007      4.38023134     19.09554391
  H     -0.57133042      4.91659450     19.64629292
  H     -0.67276550      4.11061200     18.30518296
  O      3.44702471      2.35054851     18.36601195
  H      3.87228183      1.51494884     18.57223895
  H      2.70050391      2.48406188     18.95463822
  O      4.30018929     11.28546593      0.18113950
  H      5.08341870     11.35234436      0.73221025
  H      3.52666047     11.53499316      0.69201064
  O      7.89005315      6.38581066      7.22520290
  H      7.65591429      6.83301278      8.04177455
  H      7.09192618      6.08709071      6.78320772
  O      2.38935735      7.43460240     18.68179574
  H      1.71486525      7.23432710     18.02868761
  H      2.78595192      6.61788311     18.99369691
  O      4.75518433      2.51656545      3.65136320
  H      5.15929978      2.87335546      4.44571300
  H      4.14727048      1.81275828      3.88947285
  O     -1.87769989      5.85707255     16.88513685
  H     -1.16759449      6.46065325     17.11544245
  H     -2.71336004      6.21113644     17.19804396
  O     -0.56062516      2.97366114      8.33184364
  H     -1.48271674      3.24075734      8.32924669
  H     -0.27728341      2.80882870      9.23414499
  O      6.40695228      0.93416801      0.31148735
  H      7.03243681      0.38449725     -0.16624809
  H      5.96477329      1.52462986     -0.30286804
  O     -0.37872902      9.48435380      0.46387381
  H     -0.22362165     10.31438645      0.92058761
  H     -0.83914915      8.87800157      1.04863895
  O      4.36184079      8.17540695     20.46923273
  H      4.21803236      8.94487660     19.91350294
  H      4.51090964      7.40452456     19.91685712
  O      0.56065922     -2.40140995     11.22928285
  H      1.14181110     -2.33377177     11.99039229
  H     -0.28264171     -1.99010957     11.43244669
  O      6.43508698     11.23056459     10.53569284
  H      5.89912277     11.66609753     11.20251622
  H      7.10260577     10.68974697     10.96410266
  O      9.77123495      4.06734543     15.50026721
  H      9.97856216      4.94908594     15.81830669
  H     10.57798917      3.55052370     15.43991045
  O     -3.43310943      9.67995377     15.98329187
  H     -2.49961630      9.53980309     15.80851097
  H     -3.84919666      8.84085479     16.19396774
  O      5.71665892     10.48133213     20.41520993
  H      5.96140871     10.27868034     19.50932374
  H      5.73322998     11.43215675     20.54657945
  O     -4.30949370      3.80362786     -1.12925789
  H     -3.66762063      4.26314182     -1.67555989
  H     -4.67762088      4.41347410     -0.48569752
  O      1.09401648     -5.48678784     12.00929383
  H      0.26325751     -5.01150076     11.93485099
  H      1.80765679     -4.93919928     11.67393688
  O      8.83547003     11.05587795     23.47461509
  H      9.19268768     11.60229026     22.77074781
  H      8.53783726     10.21881853     23.11082084
  O      8.68908500      6.35842934     12.17783159
  H      8.31198358      5.52997915     12.48289685
  H      9.63932585      6.34734155     12.31391757
  O      5.66582971      1.19592663     20.16354463
  H      6.40659507      1.66511181     20.55435400
  H      5.33626528      0.54279486     20.78516042
  O     -1.14826697     -4.32596643      9.52244419
  H     -0.90713059     -5.22635229      9.75213648
  H     -1.62598508     -3.92592886     10.25275602
  O     -1.73170800     -2.46003731      1.81481249
  H     -0.84889274     -2.11166986      1.67032251
  H     -2.37986112     -1.77491136      1.63564783
  O      6.84351528     -0.43051543      6.80091845
  H      6.16046568     -0.39451167      7.47452589
  H      7.70202777     -0.52565873      7.21985049
  O     -0.20341553      7.41239894     23.23414245
  H     -0.24946796      8.20986319     23.76661775
  H     -0.23596538      7.64609093     22.30358962
  O     -4.98695082      3.50249949      6.99191250
  H     -4.99617344      4.04025650      7.78710577
  H     -5.14810835      2.58494193      7.22368047
  O      1.46666065      4.42794723     22.50989647
  H      1.18465602      4.34642883     23.42391405
  H      2.07585469      5.16525080     22.42703478
  O      6.09549073      0.89169027      3.58690291
  H      5.92587969      0.73613269      2.65489758
  H      6.30339599      0.05952702      4.01804064
  O      1.67265302     13.12156018      8.19042020
  H      2.56968125     12.99548270      7.87254472
  H      1.64767276     12.98787673      9.14073843
  O      6.73092495      6.93982717     12.26300497
  H      6.65099863      7.25952701     13.16467220
  H      6.35690347      6.05783435     12.20138846
  O      5.61811762      9.18440646     12.67713942
  H      6.54258516      9.32507040     12.89433384
  H      5.33474774      9.84394964     12.03971938
  O      2.42295192      6.55240669      3.72633526
  H      2.19637056      5.91377293      3.04632952
  H      3.28902497      6.34509341      4.08485818
  O      4.00455323      2.45063054      7.75482405
  H      4.04286959      1.50755462      7.93015139
  H      4.78247815      2.71625726      7.25896595
  O      7.67918025      8.96021332      3.06076629
  H      7.50607062      9.37438675      2.21218310
  H      7.43446241      8.03279899      3.02056874
  O      8.80928706      2.01066969      0.93574188
  H      8.76507319      1.06685336      0.76587176
  H      8.28733788      2.22108941      1.71349029
  O     -1.93992189      9.34626601      5.67586512
  H     -1.90709828      8.40031936      5.51552939
  H     -1.06092892      9.66511613      5.89336447
  O      0.86290315      7.29475224     12.35955739
  H      0.73890090      6.36490952     12.15555751
  H      1.24107947      7.38254210     13.23755261
  O      5.73719907      7.54665714     10.57599142
  H      5.62104509      8.47455859     10.35894959
  H      6.52541109      7.21223527     10.14184418
  O      7.53499820     -1.02709972      1.47545232
  H      7.04472700     -1.16122003      2.28985142
  H      8.46595287     -0.90862107      1.67765572
  O      1.92816793      3.49326817      4.12835900
  H      1.88797561      2.88578241      4.87061611
  H      2.41111966      4.28205073      4.38561317
  O      1.34363616      2.73135508     -3.70418818
  H      1.44011766      3.55648119     -4.18528925
  H      1.15781073      2.02019769     -4.32170261
  O      7.13278109      1.29588219     17.71915437
  H      7.66880655      0.52348720     17.52503409
  H      6.70827352      1.60184817     16.91430771
  O     10.82775700      8.59652643     15.37973995
  H     10.80737660      9.26027112     16.07301308
  H     10.42232327      8.95076907     14.58492195
  O      9.25087845      4.69953697     10.91059841
  H      9.65241118      4.07716447     10.29984155
  H      8.75093030      5.35459161     10.41809940
  O      4.38804965     13.77712312      9.44715872
  H      5.26754469     13.98581300      9.12383688
  H      3.73928957     14.30219963      8.97281176
  O      4.07651945     -1.33287318      2.99940786
  H      4.93894527     -1.72890873      2.85457160
  H      4.11541825     -0.74997075      3.76118974
  O      2.18699665      4.14784264      7.40060630
  H      2.74492989      4.02355764      8.17188041
  H      1.27639594      3.94603638      7.62793991
  O     -1.70409581      2.64271014     20.54322923
  H     -2.41268021      2.99563832     21.08632209
  H     -2.07795969      2.17782028     19.79109678
  O     -1.67935529      6.83011127     15.11316280
  H     -2.01207071      7.58019949     15.61142790
  H     -2.40076088      6.22562978     14.92401708
  O      0.09024493     11.20685513      7.41178205
  H      0.68752319     10.67607652      6.87967985
  H     -0.55152047     11.63616607      6.84131795
  O     12.31264146      4.93025159     19.03491761
  H     11.68253796      4.23467366     18.83307379
  H     12.51982261      5.41726311     18.23398331
  O     10.33682646      7.13106152     -0.31644217
  H     10.95142595      6.66956240      0.25878477
  H      9.71292401      7.63015373      0.21577274
  O      8.48957494      1.14505081      5.64485451
  H      7.90586930      1.87706109      5.43260775
  H      8.08319885      0.32050451      5.36812020
  O      6.68510787      1.71593718     12.94801676
  H      7.03516515      2.54726515     13.27657985
  H      5.91932493      1.46259652     13.46858856
  O     10.47788055      6.97121236     21.10123681
  H     10.97531288      7.76896891     21.29551897
  H     11.01297158      6.20152111     21.30824640
  O     -0.85032374      6.54874276      8.30724425
  H     -1.55101687      7.17964183      8.48778646
  H     -0.06005811      7.01810895      8.03016011
  O      9.60092208     -1.35653216     17.35001533
  H     10.40963283     -1.14217110     16.87923273
  H      8.93748115     -1.65957733     16.72582805
  O     13.81106813      2.44526979      4.50830866
  H     13.33878432      2.05043712      3.77165734
  H     13.36946071      3.25482826      4.77513814
  O      5.64276823      3.09664309      9.10385337
  H      5.38162768      2.20948364      9.36144553
  H      5.55658961      3.68712397      9.85585442
  O      5.07626161      5.73036195      2.41301163
  H      4.62361435      5.15189669      3.03114463
  H      5.11952207      6.61752979      2.77723925
  O     10.07355991     -1.62463147      3.96849990
  H      9.56646849     -1.37800207      4.74543763
  H      9.47499895     -1.81866713      3.24346546
  O      4.79250068      9.84900387     17.50279740
  H      5.54389339      9.43390871     17.07302420
  H      4.79240451     10.78946503     17.31009867
  O     -2.15693430      6.75882645      1.82100210
  H     -2.71724401      7.41808448      1.40503110
  H     -2.13126053      5.96956270      1.27510505
  O     -4.02900253      7.63395067      7.11706902
  H     -4.35001714      6.94495132      7.70343880
  H     -3.07439515      7.70080476      7.19358891
  O      1.19244805      9.19832247     -2.68093745
  H      1.35024222      9.88104617     -2.02474437
  H      1.23393749      8.33552695     -2.26205499
  O     -2.22218648      5.41252610      4.32789095
  H     -2.14474684      4.60072718      3.82134814
  H     -2.20908453      6.16478709      3.73162611
  O      8.45143241      5.66329591     18.64319091
  H      7.68426276      5.38998932     18.13490532
  H      9.22845632      5.19694584     18.32640792
  O      8.63135686      2.64690250     19.40281984
  H      9.29106614      2.44266329     18.73598402
  H      8.33320553      3.55264851     19.29177953
  O     -3.16741597      5.09012773      8.65216936
  H     -3.22980338      4.32238824      9.22513000
  H     -3.07867704      5.88256763      9.18673873
  O      5.28880527     12.57997224      2.59524854
  H      4.99001723     12.95165750      3.42842066
  H      5.85489850     13.21248983      2.14685144
  O      2.75795977      0.96039929     16.13409692
  H      1.90984766      0.84625481     15.69903729
  H      2.62612236      1.01725070     17.08330018
  O      9.95637838      4.34048059     12.90911133
  H     10.76990190      4.27578368     13.41467420
  H      9.28752917      3.77682373     13.30475217
  O     -3.66961268      8.54433004      9.44260322
  H     -2.84999220      8.86479306      9.05903350
  H     -4.38203499      8.64593259      8.80720462
  O      7.78191265      3.30638153     -3.26257040
  H      7.09813511      3.14718942     -3.91732696
  H      7.89196652      2.52389544     -2.71740651
  O      4.02943306      4.40426354      6.04869588
  H      4.40522226      4.75129671      5.23632253
  H      3.59693027      3.56619394      5.86930615
  O      1.35211122      3.87612955     20.39798700
  H      1.75246483      4.58042903     19.88293435
  H      1.00833476      3.20240688     19.80678863
  O      3.05438602     11.95677228     16.15795110
  H      2.93410001     11.13001552     15.68508268
  H      2.94518762     12.69214846     15.55058170
  O      3.35621290     -3.10309992      1.79951193
  H      3.14621399     -3.12590369      2.73598427
  H      3.03564139     -2.28204529      1.41911317
  O      4.50768948      3.18203957     14.10774155
  H      3.90591795      3.92482528     14.19572117
  H      5.29786501      3.34647133     14.62753461
  O     -0.49751238      9.15603777     14.10951354
  H     -1.43034261      8.93433777     14.15723024
  H     -0.19359854      9.45038074     14.97125515
  O     10.53148511     -3.46991987     10.57807977
  H     11.44455638     -3.45037790     10.28224372
  H      9.99000593     -3.90854031      9.91776741
  O     10.03372405      0.07628884      8.97965980
  H     10.01989123     -0.88302641      9.01316942
  H      9.13408817      0.41067701      9.00063235
  O     12.10277063      3.47199528     11.93411369
  H     11.23428240      3.43230152     11.52698643
  H     12.42627265      2.58108363     12.08650420
  O      7.40898834      4.65522070      9.04465817
  H      7.96735033      3.87941001      8.95549724
  H      6.73883444      4.64843106      8.35730988
  O     10.16587879     -1.39076358     21.41449427
  H     11.00642398     -1.12899846     21.03165904
  H     10.04086648     -0.93917239     22.25237095
  O      0.12933337      5.86406058     15.19632454
  H     -0.01059751      5.16565462     15.83994592
  H      0.63572905      5.52114750     14.45634208
  O      0.05956693      1.78004833     18.10820909
  H      0.96220836      1.45763854     18.16197140
  H     -0.06803092      2.23791133     17.27413460
  O     12.80288272      5.26133028     13.33796563
  H     13.38898002      5.28263577     14.09798934
  H     13.07791866      5.92622614     12.70245896
  O     10.50094870      5.74796582      8.69270080
  H     10.78705052      4.83166062      8.68127582
  H      9.54450005      5.78597850      8.61948184
  O      1.30856366      0.71838155      9.31459586
  H      1.86709397      0.79716603     10.09140787
  H      0.59636708      0.09998131      9.49336155
  O     11.48108818      8.76694219     11.70422735
  H     11.57055683      9.26897116     12.51759215
  H     11.18568622      7.87655537     11.90806307
  O      7.77245988      4.05098110     -0.88308446
  H      7.13711943      4.76949860     -0.92401261
  H      7.30625151      3.21236645     -0.85185592
  O     12.32447800      0.91519122     19.58802688
  H     11.72202538      1.60521907     19.30077714
  H     12.44903395      0.28217095     18.87713227
  O     -2.33955738      4.01615906     15.94054905
  H     -3.18446847      3.93062183     15.49287881
  H     -1.63515038      4.06044036     15.28981874
  O      7.59273225      4.76953165     23.09223442
  H      8.02221490      5.36893108     22.47752718
  H      7.11839852      4.09378250     22.60236647
  O     -1.79900179     -1.22837278     -1.44063153
  H     -1.03212409     -0.74066203     -1.74988357
  H     -1.52616595     -2.09922256     -1.14266968
  O      8.84193486      2.78537708     21.57733868
  H      8.39377220      2.10875357     22.09010652
  H      9.19709283      3.45298758     22.16874297
  O      6.20496857     13.04044230     18.12106878
  H      6.41938799     12.12466970     17.92875432
  H      5.64832712     13.39269276     17.42273511
  O     11.95970847      3.46785553      7.04978208
  H     11.73516605      3.03382709      6.22346494
  H     12.58253621      4.17830972      6.87966316
  O      2.31884426     -0.53823066     20.32674921
  H      1.82453442     -1.30875018     20.03768615
  H      3.06456142     -0.39685253     19.73894130
  O     -4.72827821      6.52940023     14.09628932
  H     -5.35896617      6.96153460     13.51569256
  H     -4.08815994      6.04470905     13.57005452
  O     14.11409355      0.11166159     12.82222338
  H     13.61492587      0.90829507     13.01666292
  H     14.19792770     -0.41656050     13.61943933
  O      3.93602074      6.73850969      6.38093260
  H      4.82023440      6.36482445      6.39213751
  H      3.47781652      6.50183647      7.19064532
  O      9.47257050     10.13739137     10.60289370
  H     10.42574383     10.21304907     10.51724021
  H      9.07236501     10.12542137      9.73037305
  O      6.57725629      4.86510217     14.90662240
  H      6.35710652      5.44307003     14.17239680
  H      7.47240631      4.53571963     14.79793210
  O      8.47909959     -3.48773146     12.56703723
  H      8.47739091     -4.33039985     12.10713825
  H      8.85889297     -2.81341704     11.99900813
  O      2.77435288      1.97104234     21.76871492
  H      2.16512634      1.48013068     22.32499611
  H      2.71501480      1.64882592     20.86635380
  O      4.22875476      6.77477424     -2.61652826
  H      3.96705966      7.45018000     -1.98649435
  H      3.67830946      6.83736749     -3.40055126
  O      3.92077036      3.60256391     20.19034173
  H      3.82392438      4.45590088     19.76134655
  H      4.08991481      3.73185059     21.12643740
  O     -3.73656941      1.84878098     14.38182069
  H     -4.25678632      1.04199072     14.38981149
  H     -4.32335717      2.60852866     14.38979584
  O      4.69733268      5.53779547     22.25822140
  H      4.77573450      5.34684451     23.19576654
  H      4.32625023      6.41522431     22.13983033
  O      5.43774294      1.86602783     -3.47906382
  H      5.03868456      1.95700560     -2.61068864
  H      4.93671319      2.37905014     -4.11732497
  O     -1.45136981      5.49027732      6.17324741
  H     -1.82979871      4.96938453      6.88533046
  H     -0.60184483      5.84165360      6.44972891
  O      3.35055257     -2.39331362     -1.64330322
  H      3.32400283     -2.10501224     -0.72800140
  H      3.73911184     -1.70297995     -2.18557724
  O      3.83133107      7.53984044     14.43146290
  H      4.66724241      7.24199008     14.06521516
  H      3.44590858      8.20211947     13.85315849
  O     10.32423492      7.86890540      2.38011755
  H     10.39874742      8.77203115      2.06323937
  H      9.60894555      7.81101997      3.01777764
  O      3.92763338     10.75864809      9.47411194
  H      3.27427869     11.31600925      9.90315294
  H      4.46608466     10.32511964     10.14023753
  O      9.09694606      5.71826717      4.56884649
  H      8.61487989      6.54170087      4.67453071
  H      9.16733746      5.50568782      3.63532891
  O      4.14996474      1.11461632      1.20059911
  H      3.39173532      1.49233503      1.65228122
  H      4.27027491      0.20479904      1.48230459
  O      4.18456454     10.93301462      6.47161782
  H      4.76793459     10.88372882      5.71079571
  H      3.31180559     10.61649271      6.22727030
  O     -3.89044435      1.40111401      9.30485207
  H     -3.81975912      2.18233166      8.75140596
  H     -4.46036679      0.75687327      8.87853965
  O      2.87415627      8.93203381      4.22825708
  H      3.05852860      8.34046082      4.96150209
  H      2.38210667      9.69261911      4.54605763
  O      6.65301310     11.55754358      4.81016434
  H      7.33955435     12.21417269      4.94836462
  H      6.45315004     11.49518966      3.87327227
  O      1.83219122      7.95076186     10.04193485
  H      1.79299666      7.13696440     10.54967247
  H      2.62629263      7.95398049      9.50249755
  O      4.04987643     -4.00010870     19.25800829
  H      3.66360086     -4.50273164     18.53706351
  H      3.94875736     -3.06136171     19.08443112
  O     10.41005990      4.44062197      0.52780804
  H     10.12862156      4.51767851      1.44238704
  H     11.35950780      4.57138744      0.47258954
  O     -3.00166950      3.10310595     17.60322198
  H     -2.28685690      2.48684773     17.77891708
  H     -3.11595534      3.68498154     18.35817864
  O      9.67886996      8.05558571     10.52681243
  H      8.79178132      7.71945876     10.37952892
  H     10.30336740      7.55494245      9.99675652
  O      7.74870661      7.54532796     20.19002916
  H      8.68737252      7.34496034     20.20897968
  H      7.48417774      7.92115895     21.03286696
  O      7.01413238     -4.39404702      9.04980684
  H      7.62453742     -3.97437846      9.66044911
  H      6.16300671     -4.51203679      9.47789971
  O      9.17188670      0.78819178      2.85253104
  H      8.36061533      0.70487760      3.35898688
  H      9.91355029      0.90054081      3.45162436
  O     -0.41706726      6.90483668      4.72371006
  H     -0.14490188      7.58471346      4.10298985
  H     -0.02551653      6.06537412      4.47153822
  O     -1.17165581      4.98122219     10.62073371
  H     -2.00577744      5.16086978     11.06069718
  H     -1.26449300      5.14370131      9.67914899
  O     -2.30091342      1.44360670      4.03579687
  H     -3.17431795      1.72574256      3.75443610
  H     -1.76777957      1.23510880      3.26514979
  O      8.41156779     -1.11913434     13.63084411
  H      9.28456737     -1.05630205     14.02520923
  H      8.22622696     -0.31914177     13.13359099
  O      3.50257112     10.93430032     12.51267245
  H      3.40042222     10.15824723     13.06846668
  H      3.71206926     11.69489021     13.05967660
  O      7.65078168     -2.70441024      7.79827252
  H      6.89056892     -2.46045235      8.33134015
  H      8.45074851     -2.36611911      8.20718838
  O     -4.39687773      4.74236188     11.81796700
  H     -4.44908835      4.06692471     11.13777682
  H     -4.15062132      5.58023988     11.41932150
  O      9.13801117     -0.12182642     -2.16037984
  H      9.13938354      0.65446696     -1.59560846
  H      8.64072455      0.06458143     -2.96010363
  O      3.15652427      9.40594288      7.87790252
  H      2.42532834      9.98103713      8.11500823
  H      2.81430835      8.58256478      7.52218245
  O      6.05019500      8.73081983      4.91625805
  H      5.20064770      8.90791442      4.50576214
  H      6.49691192      9.56063151      5.09916947
  O     -0.60236291     10.21416568      3.08885710
  H     -1.02994480      9.85562040      3.87002227
  H     -0.43755295     11.15140443      3.21543199
  O     -2.19125739      2.39330631     10.23104389
  H     -2.18499941      1.48223571     10.53355210
  H     -1.78060723      2.95375490     10.89351187
  O      1.23853649     12.08579067     11.83432605
  H      2.02766611     12.08075352     11.28765516
  H      0.46035368     12.12319716     11.27340512
  O      4.31171500      1.23203754      5.95522491
  H      3.61814173      0.74585657      5.50335748
  H      5.14013922      1.12211688      5.48275187
  O      6.07251228      4.38853723     19.80507625
  H      6.47354559      4.17554547     20.65089349
  H      5.72453996      5.28286054     19.83155431
  O      1.69322464      5.16307365     17.68595955
  H      1.74675613      5.46546973     16.77640416
  H      1.36416435      4.26143367     17.70505559
  O      5.33809787     -1.87392186     18.07503570
  H      5.88130419     -1.13170004     17.80001995
  H      5.57731121     -2.65202187     17.56617682
  O      0.29916161      3.91577236     -0.70873100
  H      0.86319289      4.18595510     -1.43706472
  H      0.71710090      4.14842409      0.12361504
  O     -2.96057321      8.06988049      3.71624616
  H     -3.72918659      7.58874322      4.03142927
  H     -3.07651796      9.00719535      3.88828595
  O      5.64554404     12.08967704      7.71493424