914
Energy =      0.00000000 au
  O      6.37931819      6.45992203     17.52349983
  H      7.14323990      6.61696549     16.96371329
  H      5.60736189      6.30165672     16.97519740
  O     11.43298095      4.58289128     -0.57245633
  H     10.78236812      4.28213465      0.06617377
  H     11.57841833      3.89753811     -1.22876343
  O      4.09641800     10.83460791      5.16576655
  H      3.74341529     11.72114690      5.27082711
  H      4.60883186     10.59954957      5.94279911
  O     -1.60643675      4.81147180      4.00930586
  H     -1.57835152      4.41403115      3.13589179
  H     -1.01236110      4.33786973      4.59614076
  O      4.72306428      0.97618724     21.57027436
  H      4.73274810      0.25911373     20.93206452
  H      4.84452558      1.81238507     21.11462059
  O     -0.47636662     -3.06064004     19.44812263
  H     -0.76653457     -2.66060021     20.27114796
  H     -1.18043871     -3.60742127     19.09187444
  O     -0.42481663      9.59693776     17.04020630
  H      0.06711345     10.05335592     16.35370265
  H     -1.36606196      9.71069863     16.88948900
  O     -2.73719710      6.40517135      3.12383283
  H     -3.18347089      6.11003269      3.92091054
  H     -2.14057822      7.12589472      3.33878341
  O      3.69847565      2.30336360      2.26654539
  H      4.04774404      2.92413971      1.62292390
  H      3.42584947      2.77853872      3.05488768
  O      0.68581788      7.12541641      4.11024242
  H      0.24592458      7.96031741      4.28640769
  H      1.42576654      7.01970088      4.71265442
  O      5.04989711     -0.82401057     -3.67379805
  H      5.20265376     -0.61659150     -2.74900470
  H      5.20839245     -1.75901925     -3.82292214
  O      0.47544393      7.93395351      6.30356378
  H      0.40436454      7.07680999      6.73000570
  H      0.43096595      8.62654303      6.96684462
  O      5.09843544     -3.43852700     16.77156035
  H      5.79331922     -3.04842515     17.30687062
  H      4.90659494     -4.32336432     17.09071572
  O      5.91298950      7.28819661     23.49919841
  H      6.64479716      6.87821672     23.03232150
  H      5.28347375      7.63785670     22.86433800
  O      5.90133782      8.42316631     12.31024254
  H      6.33571856      8.11220626     13.10787480
  H      6.48207094      9.02944963     11.84465733
  O      5.74334699     10.67250193     10.57608113
  H      5.60462930      9.93376874      9.97889550
  H      4.90748346     10.92169914     10.97712092
  O      3.20682657      7.12375615     16.97260129
  H      2.54619743      6.51908095     16.62686000
  H      3.32391511      7.85433722     16.36093015
  O     -0.75738396     -2.71153162     12.13599041
  H     -0.16319815     -2.87610332     11.40015118
  H     -1.30228704     -1.94517334     11.94266261
  O      2.48423012     -0.00605712      2.38081550
  H      3.22411823     -0.08819765      2.98696607
  H      1.69104127      0.21995192      2.87211110
  O     -2.47861071      1.59440740      1.61517063
  H     -3.14302146      1.88468006      0.98596467
  H     -1.75320407      1.17652345      1.14532150
  O      6.08965966      7.29963396      3.18515172
  H      5.50446439      7.34220990      2.42532688
  H      5.90741422      8.03740906      3.77173036
  O      1.23213628      4.24840212     14.59362311
  H      1.60138449      4.22699204     13.70773521
  H      0.35496162      4.63749618     14.56586642
  O      0.73059382     -2.36006228     18.01511639
  H     -0.08475769     -1.93028294     17.74661754
  H      0.68980804     -3.29281289     17.79170461
  O      5.32501487     -4.96494053      9.34494091
  H      5.22634124     -4.05618167      9.05164781
  H      4.62497927     -5.50170497      8.96621395
  O     -1.82758835      2.12989971     11.80965159
  H     -0.90814413      2.34864207     11.64120547
  H     -2.21092639      1.73074411     11.02522393
  O      5.08017724     -4.32353506      2.46082793
  H      5.33201900     -4.68569392      3.31348067
  H      5.86854227     -4.14580126      1.94266650
  O      0.03163136      2.81472418      6.58291698
  H      0.30484512      3.30208224      5.80225293
  H     -0.82956635      2.41949860      6.42885449
  O      8.17057576      9.46135843     20.19948392
  H      8.73601436      8.79247572     20.59251715
  H      7.76978599      9.99014800     20.89327722
  O     -4.33421834      8.22407960      5.32160497
  H     -3.99124429      8.85572862      4.68521804
  H     -4.69109789      7.46325202      4.85751619
  O     -3.77920004      6.51331667     10.87655457
  H     -3.19686496      5.75483904     10.79171619
  H     -3.77078216      7.01679853     10.05922040
  O      6.83729979      3.93614656     -2.87299455
  H      6.13242944      3.89724117     -3.52356674
  H      7.58693711      4.40992459     -3.24066051
  O      5.88624629     -4.60154379     14.25154525
  H      6.15562814     -3.76558370     13.86398346
  H      5.26376578     -5.04002392     13.66686312
  O      1.68565592     -2.40472915     15.20361049
  H      1.17491570     -2.84085329     15.88956979
  H      2.09600307     -1.61472885     15.56293589
  O      6.42134846     -1.37603766     19.93993858
  H      7.04125088     -1.86639304     19.39507842
  H      5.79500296     -0.91507013     19.37708845
  O      7.06908762      9.55521823     17.31243208
  H      6.57643798     10.08998745     16.68560019
  H      7.68224487      8.98890314     16.83816905
  O      6.28405920      7.97937816     15.72721265
  H      6.03736061      7.19495478     15.23181405
  H      6.54166211      8.67523178     15.11809157
  O     -0.23957280      6.17674441     22.92884735
  H     -1.11070499      6.03390961     22.55158494
  H      0.16026511      6.95180492     22.52758579
  O      4.48219048      1.91641776     18.55443422
  H      4.69684428      1.04846772     18.90398604
  H      4.29711138      2.51726295     19.27992080
  O      1.71606775     -4.27775465     13.63214920
  H      2.36112397     -3.57189513     13.71738307
  H      1.66638213     -4.76768960     14.45622146
  O     11.29914655      4.15037159     18.03315503
  H     11.06020696      5.07063201     18.16592788
  H     10.62884239      3.58555392     18.42465643
  O      7.65161324      7.47986667     10.83978463
  H      8.34818320      7.87015582     11.37276181
  H      7.13478527      6.87713318     11.37941523
  O      4.28560723     -0.58522396      1.34317869
  H      4.72707708     -1.25398480      0.81453579
  H      3.69370589     -0.07509859      0.78548260
  O      9.56626922     10.44088004      1.03073110
  H      9.05179732     10.78090705      1.76646223
  H      9.06965666      9.75139190      0.58398501
  O      8.09807245      0.63063504      1.44699649
  H      8.80837689      0.72477654      0.80808728
  H      7.26386674      0.86935596      1.03624941
  O      5.92189204      4.81374474      1.80980725
  H      6.03450852      5.35762676      2.59282058
  H      5.20036005      5.16041865      1.27989329
  O      7.89509795     -2.94154769     10.09064741
  H      7.31800634     -3.67991378     10.29892798
  H      7.85712972     -2.76097827      9.14854705
  O      2.82653982     13.61252554     11.37933035
  H      3.59448973     14.15261138     11.57973051
  H      3.10434925     12.70797713     11.21742267
  O      3.86772785      7.53687924     13.71279162
  H      3.46288884      7.30113720     12.87485900
  H      4.54239214      6.89129069     13.93559991
  O      2.07733888      9.00618088     22.36325315
  H      2.97500655      9.34639635     22.35645659
  H      1.67811480      9.13806348     21.50021947
  O      6.73053692     -3.68082764      7.72694905
  H      6.52297338     -3.07433680      7.01232590
  H      6.76637916     -4.57752953      7.38600763
  O     -0.00298097     10.74087978      8.21136679
  H      0.86559202     10.56902130      7.84036057
  H      0.04010379     11.50897101      8.78563117
  O      7.46041050     -3.25891344      4.02531289
  H      8.04205925     -2.54900933      3.74367326
  H      7.34754614     -3.22185619      4.97793474
  O      8.64486529      4.18009330      7.74509923
  H      9.43303516      4.42443423      8.23569660
  H      8.53713208      4.77146236      6.99658323
  O      0.63482355     12.58179876      4.80458051
  H      1.10898759     11.89139479      4.33542083
  H      0.91476952     13.44059027      4.47945376
  O     12.19917952      4.24815307      8.80348548
  H     11.52570353      4.90767398      8.62165516
  H     12.97730259      4.42956438      8.27130653
  O      1.43860327     -0.66251429     13.92399280
  H      1.53616811      0.26233916     13.68581806
  H      0.53125825     -0.93800015     13.77421777
  O      3.25692793      4.83550527      2.34895448
  H      2.58066584      4.28862133      1.94252177
  H      2.88658236      5.29187271      3.10801503
  O      7.72477937      3.28908965     10.33690550
  H      7.99618899      2.38788443     10.14778658
  H      8.01053150      3.86595610      9.62474623
  O      2.68940017      0.18076678     -1.95025946
  H      2.73281079      0.20589024     -0.99157060
  H      1.83380433     -0.15817317     -2.22352758
  O      9.56653777      4.76676830     12.62538688
  H     10.08152990      5.36593367     12.08005765
  H      8.93561434      5.26936126     13.14590196
  O      9.56098843      3.10578088      4.89456361
  H      9.36582416      3.14455417      3.95541104
  H      8.83723067      3.49768545      5.38871492
  O      3.32922500     -1.70459939      6.16860955
  H      3.21982039     -1.42629876      5.25637088
  H      3.50160560     -0.93733753      6.71924025
  O      3.32064948     14.51469573      4.41155669
  H      4.00268021     14.25255154      3.78888943
  H      2.94462537     13.73299857      4.82284178
  O     10.16533265      1.84713418     15.69049701
  H      9.31130382      1.71143519     16.10741493
  H     10.82222518      2.04403356     16.36230266
  O     10.54174075      3.41633045     13.76141801
  H     10.96149764      2.57005095     13.59049358
  H     10.74879394      3.70223737     14.65415886
  O      4.47457849     12.30480734      7.20391656
  H      3.71939705     12.82975482      7.47910948
  H      5.27206150     12.83620784      7.26078803
  O     11.74747617      7.53500348     16.86884695
  H     11.12221111      8.07642569     16.38150149
  H     11.86556175      6.69633431     16.41686263
  O      3.56948590     -1.81907971     18.04963600
  H      3.18758589     -1.46339796     17.24387991
  H      4.52049580     -1.68849484     18.03833277
  O     12.04849783      1.66279213      8.51229791
  H     12.80452831      1.96629190      8.00445364
  H     11.31512305      1.48370788      7.91926312
  O     -5.16924131     -0.83399541     12.97772852
  H     -5.32081609      0.10717704     12.86450526
  H     -4.28068680     -1.05267769     12.68747183
  O      0.15628409      7.22168517     -1.06993096
  H      0.14263865      6.29028881     -1.30212620
  H     -0.05547130      7.32302321     -0.13907638
  O      1.09731451     11.82339944     14.22481425
  H      1.47207202     12.42911983     14.86844428
  H      1.76116325     11.18017231     13.96565464
  O      6.49992220      9.06166316     -1.60128049
  H      6.11670901      9.74170063     -1.04244537
  H      7.45262017      9.04953908     -1.48372369
  O      7.15152689      6.90868734     -2.20497095
  H      7.13541022      6.64560873     -1.28186212
  H      6.27245065      6.81702806     -2.57970224
  O      4.73442686     -4.43871751     11.61943571
  H      5.41213551     -3.99545410     11.10385008
  H      4.08347910     -4.82460985     11.02871233
  O      3.77355575     11.69593218     16.95091463
  H      4.41648674     10.98727333     16.87318191
  H      4.20290888     12.53799124     16.78300858
  O      8.08783975      7.19631021     19.56612399
  H      8.51127203      6.34718716     19.71205258
  H      7.39305101      7.32385967     20.21620072
  O     -0.94370109      0.03140200      7.59514252
  H     -1.45843856     -0.72567264      7.88407733
  H     -0.41822183      0.36023584      8.32817721
  O     -1.16231812      6.16243008     14.48765057
  H     -0.44414501      6.67700684     14.11210011
  H     -1.87837588      6.09955390     13.85132685
  O      0.71232117      9.32052287      1.06681170
  H      1.26597149      9.05485437      0.32891498
  H     -0.21110017      9.19629334      0.83559741
  O     -1.10526810      1.52324313      3.93876465
  H     -0.82659432      1.52817188      3.02011529
  H     -0.64849627      2.21984902      4.41594358
  O      9.31903024      6.84730482      7.54591680
  H      9.03579588      7.11439724      6.66839761
  H     10.20864332      6.48936966      7.50040854
  O      3.51985595      7.67439414      3.83141165
  H      3.60562797      6.88644454      4.37305599
  H      3.08666174      8.36559521      4.33755773
  O      6.94544844      2.33553905     20.87751317
  H      6.64672232      3.03589749     20.29282458
  H      7.34142849      1.63177475     20.35836424
  O     -5.14297721      4.94574202     10.45026271
  H     -5.53537057      5.24829537     11.27250897
  H     -5.62027236      5.32513597      9.70874429
  O      5.83571365     -0.35576379     22.60814823
  H      5.17561288     -0.09040824     23.25270497
  H      6.58554642     -0.74894805     23.06064902
  O      8.64191442     10.02714207     11.22970294
  H      8.59739204      9.98399877     12.18769898
  H      9.17366742     10.78211141     10.96729099
  O      6.20399474      1.77302303      8.44956095
  H      7.01010063      2.28841835      8.37106917
  H      6.17622877      1.35079039      9.31127358
  O     -1.21925905      5.22170482     19.48984408
  H     -1.60729106      6.09922134     19.52140239
  H     -1.31299405      4.79886811     20.34659542
  O      4.56214041      3.37909643     15.91039295
  H      4.41033545      3.05198547     15.02069993
  H      5.49772566      3.32156841     16.11768687
  O      1.95053371     11.58543991      2.47138161
  H      1.48576384     10.74652450      2.42883853
  H      2.72224441     11.55352182      1.90125545
  O      7.42705967     11.56046075     -0.66869633
  H      7.07064547     11.64368178      0.21879631
  H      8.35736016     11.32858154     -0.61998252
  O     -4.04800602      7.51813787     15.75087175
  H     -4.65339554      8.12984975     16.17620939
  H     -3.86436519      6.78520690     16.34306111
  O     10.84620516     -2.14586951     12.08777200
  H     10.73262833     -2.53181712     12.95940538
  H     10.95446265     -1.19552116     12.16973745
  O      2.24561313      4.96879097     11.08301400
  H      2.86165670      4.39294792     10.62421654
  H      1.73701268      5.47009220     10.44143574
  O     12.87300196      3.78820639      4.60047242
  H     13.34652337      3.33660562      5.30292116
  H     12.62005565      4.66550937      4.89704895
  O      5.39964945      4.30997350     22.64561391
  H      5.66659568      5.13184946     23.06377611
  H      5.65535580      3.56996630     23.20113493
  O      3.36925321      3.63945182     24.57612599
  H      4.00770999      3.00408063     24.24404709
  H      3.59141450      4.51573197     24.25305098
  O      6.44259611      8.27969637      8.07442995
  H      6.56825880      9.19475593      8.33610703
  H      7.29707582      7.87043068      7.91962033
  O      3.89802887      8.48616171     20.35697571
  H      3.13976530      9.03299692     20.13878404
  H      4.60477746      9.03946588     20.69750607
  O      9.76450273      2.17226292     11.07471581
  H      9.98376224      3.07034879     11.33349570
  H      9.17110895      1.78752371     11.72391499
  O      6.23073626     10.49242468     18.94330249
  H      5.33689223     10.58747965     18.60624553
  H      6.36558552      9.59080773     19.24413890
  O      3.87448293     10.08996245      7.74445975
  H      3.15890466      9.55864538      7.38773870
  H      4.68246998      9.57172008      7.75794207
  O      6.03422002      5.95158934      9.33897846
  H      5.64784540      5.88543816      8.46265736
  H      6.81555069      6.50824458      9.30351960
  O     -1.94169081      8.03646703      8.21229860
  H     -1.52823158      8.52936138      8.92483396
  H     -2.34760117      7.24161614      8.56592106
  O      8.33308037      6.83661005     14.92605686
  H      8.92558632      7.40485882     15.42368124
  H      7.88900483      7.35164623     14.24846210
  O     -2.43289868      1.13864276      9.11517283
  H     -2.32735321      0.23346032      9.41700873
  H     -3.31251030      1.25356899      8.74819142
  O     -4.75838682      4.49157305      4.99837185
  H     -5.28533462      5.04051835      5.58367953
  H     -4.27910026      3.83997618      5.51538822
  O      6.60317613      4.92846810     19.07663209
  H      5.81606116      4.63084553     18.61460304
  H      6.36996144      5.19260359     19.96962893
  O      0.34789146     -0.60895551     -0.17708949
  H     -0.37055733     -0.63659804      0.45904511
  H      1.16018719     -0.35609643      0.26770027
  O     -4.93008185      9.07744940     13.15706772
  H     -5.69324421      8.72305160     12.69491470
  H     -4.72175353      9.94829600     12.81090952
  O      2.99544462      8.71300854     11.53009350
  H      3.59857043      9.12927082     10.90996046
  H      2.17713166      8.48981324     11.08048503
  O      1.52968019     10.04763430      5.81958539
  H      1.55460674      9.85559281      4.87932014
  H      2.19557505     10.70639322      6.02987265
  O      2.13445986      1.43505721      6.93752361
  H      1.24836196      1.14297636      7.16361937
  H      2.08257996      2.16201743      6.31267377
  O      1.95209332      4.34924589      5.33274709
  H      1.85845462      3.77083361      4.57230575
  H      2.41844344      5.14713971      5.07297214
  O      2.01832754      3.15621604      8.06838744
  H      1.31405979      2.72286794      8.55605164
  H      2.70450753      3.43716249      8.67816290
  O      2.27945693      5.16600137     -0.69857354
  H      2.45688437      4.44213855     -0.09347675
  H      2.22735304      5.98902890     -0.20713598
  O      4.31437704      9.72101573      3.50548827
  H      5.11346028      9.76492425      2.97526377
  H      3.57489646     10.06607422      2.99981730
  O      4.39504275      5.14866891     12.92255674
  H      4.51706634      4.56850227     13.67761761
  H      3.46054855      5.20629774     12.71042586
  O      1.89267166      2.60956132     18.82534118
  H      2.43598333      2.63863918     18.03441330
  H      1.09729510      3.12902789     18.68702767
  O      9.30567732     -0.14553466      3.78460323
  H      9.78867249      0.65135197      3.55376267
  H      9.01481239     -0.58735520      2.98348388
  O     -1.01744137      5.93750685      9.37927708
  H     -0.80732501      6.30186732     10.24223280
  H     -0.22655859      5.92558159      8.83525299
  O     -4.16504850      2.69884442      9.91945448
  H     -3.36253425      3.22332639      9.96934980
  H     -4.79192956      3.12736452      9.33209542
  O      0.42930192      3.29142497     -1.18422705
  H      0.94952974      3.67634327     -1.89331163
  H     -0.34140437      2.85393574     -1.55330020
  O      2.57697847     -0.33186110     23.29319345
  H      2.08669803      0.19621132     22.65887128
  H      3.13321860     -0.95937885     22.82584091
  O      7.45317730      5.29428680      0.39071025
  H      8.26854195      5.02275159      0.81855266
  H      7.16431022      4.60695310     -0.21404441
  O     13.49673052      4.13721481     13.38765025
  H     14.19081082      3.74166158     12.85530620
  H     12.79881315      4.46216149     12.81413390
  O     10.76150876     -0.94647388      6.45975858
  H     11.21964082     -0.45869149      5.77143935
  H     10.32182000     -1.70792320      6.07444218
  O      3.46318692      1.25010372     14.74325449
  H      2.68520661      1.72841058     14.44733359
  H      3.35944779      0.31628672     14.54621641
  O      6.40516118     -0.64063564      3.63297575
  H      6.95413572     -0.30672321      2.91972303
  H      5.50022374     -0.34667573      3.50539915
  O     10.46478054      4.09555545      6.38980212
  H     10.72916376      3.43927958      7.03864995
  H     11.01182250      4.87869381      6.48487788
  O     -0.37883701      0.12413801     20.72721307
  H     -0.34098287      0.91788356     20.18857120
  H     -0.75792854      0.33568830     21.58344674
  O      3.87486290     -3.79229839      7.45408411
  H      4.25058088     -3.44536606      6.64163475
  H      3.37510045     -3.10217713      7.89631724
  O     -0.11659163      5.21959250     12.12812742
  H      0.56496657      5.70224043     12.60155049
  H     -0.58209725      4.64192750     12.73739557
  O      9.87839406      7.25957050     12.86993815
  H     10.12444336      6.80535676     13.67910416
  H      9.36742732      8.04330260     13.08505903
  O     -4.53536055      3.78175665     20.34586301
  H     -4.19765292      3.86591828     21.24055311
  H     -3.81775015      3.54612861     19.75331364
  O     -3.54112311      0.99403292     15.72243713
  H     -4.04806037      0.43707424     15.12711230
  H     -3.40662909      1.85485211     15.31932214
  O      6.73178909      4.93161073     14.52884052
  H      6.75053190      5.71024302     13.96760932
  H      6.26886426      5.13572482     15.34470696
  O     -2.50405796      8.47658956      1.89098328
  H     -3.31936608      8.01198847      1.68845301
  H     -2.38663167      9.20197209      1.27322018
  O      8.06129195      7.58223407      2.70990699
  H      7.79957647      6.76834629      2.27322438
  H      8.32374818      7.39109708      3.61333567
  O     -1.45937134     -3.03672202      2.90627501
  H     -0.66193568     -3.19257423      2.39499577
  H     -2.14926462     -2.70060322      2.32949826
  O     11.76274905      1.16863336      2.30718511
  H     11.01889450      1.76175543      2.17878487
  H     11.82438769      0.92800903      3.23449337
  O      8.01725627     -1.49278450     14.10926041
  H      7.97616166     -0.72281947     14.68115646
  H      8.91421092     -1.83469004     14.09610929
  O      5.92548141     13.06799732     11.80285809
  H      5.92275624     12.37235412     12.46442677
  H      6.56695097     12.85838743     11.12008397
  O     11.19796646     11.27199237      4.79067309
  H     11.86882738     10.81860775      4.27493284
  H     10.33905333     10.88174302      4.61298324
  O      4.67137523     13.08191250     14.54772130
  H      4.30334660     13.92309765     14.26743133
  H      4.25117552     12.36981367     14.05992272
  O      2.50716443      4.79917213     -2.95708698
  H      2.81729621      5.59982826     -3.38646798
  H      3.25357281      4.22370706     -2.77456444
  O      9.29091413      2.67034878     19.81918638
  H      9.33232881      2.03812805     20.54042267
  H      9.20411837      3.55759198     20.17536891
  O      8.98796724      1.87778594      8.46012819
  H      9.55218725      1.22331801      8.87837157
  H      9.34336644      2.10275893      7.59718059
  O      5.09807268      7.24221186     19.16771327
  H      4.77192520      6.62899363     19.83042831
  H      4.38138330      7.48791473     18.57814864
  O     10.99686375      7.70229829      5.38908699
  H     11.32810029      7.90144913      6.26784823
  H     10.17484012      8.17570720      5.24157035
  O      2.71609245     -2.90351454     10.89139020
  H      2.34862955     -2.01824082     10.94488277
  H      2.60729490     -3.34719800     11.73572905
  O      3.76317932      9.64102941     14.49732266
  H      4.44093091      9.10514136     14.91574444
  H      3.19844556     10.02685606     15.17097953
  O      0.40741795      3.41125322      2.75885810
  H      0.42186690      4.34145954      2.99572820
  H     -0.26109883      3.26220653      2.08619889
  O     -0.21103692     -3.60622036      7.87253401
  H     -0.31640745     -4.40606920      8.39285976
  H     -0.45902951     -2.84464286      8.40177818
  O      4.17572811      1.27496260      6.92971783
  H      4.77821633      0.76399788      7.47517452
  H      4.08086503      2.15695453      7.29672088
  O      4.22639960      1.76671374     -3.71193453
  H      5.02030219      1.34232697     -3.37844608
  H      3.60905456      1.90425092     -2.98973744
  O      7.78912674     -3.10264619     12.21809807
  H      6.91475181     -2.70899009     12.17223555
  H      7.97955911     -3.35556283     13.12439200
  O      2.99336072      5.36078390     14.70261428
  H      2.50421073      6.18373743     14.63134166
  H      3.69992595      5.46252561     15.34449760
  O     -3.99639851      3.38385586     12.60706250
  H     -3.83644511      4.18455734     12.10219415
  H     -4.16078884      2.65353421     12.00605824
  O      4.04671256     -3.74626817     14.78286129
  H      4.13175029     -2.85160077     15.12040956
  H      3.65986047     -4.30818350     15.45828459
  O      9.40297439     -0.68354417     20.02704564
  H      9.86543364      0.15361842     19.94403813
  H     10.03302093     -1.40520958     19.96507473
  O      5.06564577      1.94070768     13.48850481
  H      4.91314936      1.12835746     13.00020986
  H      4.97248261      2.69184820     12.89798932
  O      5.12450984     12.00218640     -0.86334325
  H      4.56050620     11.46963791     -1.42893321
  H      4.75550320     12.02988303      0.02247106
  O      9.02671378      9.37991621      3.81998666
  H      8.26305073      9.53687395      3.25982328
  H      9.82408339      9.39199626      3.28551891
  O      6.57723635      2.30639914     11.65908404
  H      5.79699673      2.13518653     11.12662524
  H      6.91960004      1.47753839     12.00168724
  O     -0.56290833      4.39760509     17.35090531
  H     -1.17493208      3.80912710     17.79892382
  H     -0.79853021      4.45842647     16.42225947
  O      2.27895869      0.59759364      4.77455777
  H      2.16028428      1.46160926      4.37331796
  H      3.04336937      0.61609256      5.35501802
  O      8.90585325     -0.41421811     12.46162048
  H      8.32609161     -0.98399349     11.95090287
  H      8.38781640      0.27622968     12.88176291
  O     -1.71904850      0.40996926     -1.52832102
  H     -1.36146512     -0.47660129     -1.44041882
  H     -1.04894388      0.99078199     -1.89603880
  O     -1.27565124      4.42318204      6.58688981
  H     -2.18392671      4.13474196      6.47096744
  H     -1.25893099      5.22506758      7.11443129
  O      1.99292200     -5.25654018     10.73345636
  H      1.29489113     -4.75386780     11.15968797
  H      2.29810756     -4.78474090      9.95508163
  O      1.02047670      0.23043513     17.26280041
  H      0.53683777      0.93943969     17.69292356
  H      1.88588685      0.14072549     17.66853118
  O     13.25462903      6.26413343      9.55817687
  H     12.99852134      6.03090151     10.45350459
  H     13.91855638      6.95701277      9.58498504
  O      8.20361848      0.00247858      9.73472984
  H      9.04147347     -0.32187890     10.07294758
  H      7.65407675      0.29386896     10.46595862
  O      0.79096922     -0.80062885      9.92316119
  H      1.63602352     -0.53186666      9.55539750
  H      0.62520394     -1.72097647      9.70617697
  O     10.88115632     -1.73298197      3.23195905
  H     11.48365405     -1.22477365      3.77997438
  H     10.27230485     -2.22024587      3.79184634
  O     -2.25723956      0.46545674     13.31943904
  H     -2.47737676     -0.46674809     13.38373346
  H     -3.00221643      0.94598277     12.95105853
  O      8.37061154      4.53521578     17.61230513
  H      8.55615101      4.60230952     16.67279806
  H      8.61993029      3.66309608     17.92670520
  O     -2.53704969      4.51059222      1.25850680
  H     -2.65585622      5.46300413      1.27842109
  H     -3.33423287      4.09518711      0.92155343
  O     12.08187378      6.66680539     14.06565756
  H     12.51642880      5.87368267     14.38771080
  H     12.35884419      7.42023741     14.59218161
  O      4.94795541     -2.33381692      3.83115338
  H      4.09106627     -2.71516374      3.62642038
  H      5.52432413     -2.41219898      3.06744182
  O      9.70356482      7.55499608     17.97708480
  H      8.95771701      6.99161068     17.75820599
  H      9.44523691      8.47574528     17.89289686
  O      8.23620733      2.71131168     13.59134005
  H      8.23795383      3.50272181     14.13472479
  H      8.95451676      2.13494616     13.86232778
  O     10.88010364     -0.87596009      9.47897033
  H     10.74666307     -1.59111618     10.10534513
  H     11.81879907     -0.77145042      9.30713135
  O      8.24897597     12.33875050     13.75576879
  H      8.46454741     11.82198480     12.97597255
  H      7.45438523     11.98694059     14.16375820
  O     -0.57264860      7.26107367     12.05637588
  H     -1.26803008      7.89169959     11.85548898
  H      0.28333660      7.67755176     11.93213687
  O      1.15651580      6.24173695     18.42265446
  H      0.85162626      5.39097953     18.74646644
  H      1.65748858      6.68571410     19.11077550
  O     -0.51302532      9.53514651     -1.60017678