914
Energy =      0.00000000 au
  O     -1.21305786     -0.83756241      6.30059077
  H     -0.82671067     -1.15123458      7.12153268
  H     -1.79234585     -0.09398811      6.48258715
  O      1.04848149      4.76639269     -3.55855145
  H      1.33928346      5.56220522     -4.00990125
  H      0.99356096      4.04318836     -4.18748645
  O      6.18259795      1.78007654     18.56246782
  H      6.40659705      1.37143412     17.72316109
  H      5.56832526      2.50258244     18.41328910
  O      7.86192438     -1.32736738     11.24915635
  H      6.94041364     -1.59647157     11.24821082
  H      8.20864669     -1.36834179     10.35489423
  O      3.04796984      8.80890847     18.29877848
  H      3.56372421      9.24091816     17.61396824
  H      3.46050780      8.95793010     19.15271348
  O      0.99961912      3.58535489      5.51993278
  H      0.26272510      4.19923013      5.56169868
  H      1.71251737      3.97478410      5.00834605
  O      2.02681378      7.44397427     -2.85234021
  H      2.51936476      6.81441020     -2.32069878
  H      1.99149925      8.28881964     -2.39781938
  O      1.13310973      3.82550747      2.58206354
  H      2.04642127      4.09141900      2.45262980
  H      0.67252189      4.49764351      3.08969724
  O      4.77067905      4.94899391     15.30651810
  H      3.93920526      4.77345519     15.75310235
  H      4.99514489      5.87762995     15.40059366
  O     -2.01486792      3.53516710      4.40719663
  H     -2.39697409      2.95445016      3.74510698
  H     -1.58758110      4.27769409      3.97397654
  O     -3.15629810      6.04621489     18.04781253
  H     -3.75237818      5.90895780     18.78771052
  H     -3.31514233      6.91199229     17.66467027
  O      2.70034332      3.14977478      6.57286501
  H      2.17107269      2.93411365      7.34420338
  H      3.46650075      3.66138402      6.84278866
  O      5.51160586      7.78392947      4.63680432
  H      6.22202107      7.33928947      4.16861045
  H      4.96235389      8.25921591      4.00909015
  O      2.29097318      4.89818108      9.89053547
  H      1.64029450      5.39803276      9.39217259
  H      2.89693432      4.46659191      9.28378849
  O      0.33414878     -0.66111562     12.85185951
  H      0.49173145      0.17908176     13.28870739
  H      1.17322263     -1.09283277     12.67529402
  O      4.07410401     -1.13218895     14.31156966
  H      3.55523652     -1.65227519     13.69359973
  H      4.64843549     -0.53602691     13.82542753
  O      0.11793039     10.54513390     20.04747147
  H      0.69103259     10.49378091     19.27902060
  H      0.62801809     10.83011354     20.80917821
  O     -2.78663924      3.86427609     -1.56568921
  H     -3.36207768      3.78459338     -0.80141094
  H     -2.57457204      2.98960829     -1.89973072
  O     -3.16270414     -3.06007607      6.55824808
  H     -3.90544131     -3.37379660      7.07932478
  H     -2.37799504     -3.56587325      6.78185676
  O      8.39567154      0.65363826     22.43610669
  H      8.54752485     -0.20096968     22.02600201
  H      8.56178716      0.59041373     23.37950918
  O      3.28287331     -0.10568892     11.51717162
  H      2.88714518     -0.09469073     12.39174482
  H      3.63903008      0.76272404     11.31564920
  O      8.45024574      8.88787683     16.41712918
  H      8.43205930      7.95905700     16.65912709
  H      9.02722389      9.01045318     15.65971829
  O      3.11482817     -3.89451752      8.21317110
  H      3.75853281     -4.60617170      8.24132550
  H      3.32052996     -3.24925550      8.89355606
  O     10.74563417      0.21379900     14.14797513
  H     11.27018189      0.09845120     13.35227130
  H      9.83394189      0.39423064     13.90743072
  O      3.37757653      3.86696453     -0.63050404
  H      2.89001274      3.06767232     -0.41834014
  H      3.08973676      4.20108890     -1.48321101
  O     -1.22235272      2.77640736     18.92879219
  H     -1.03509325      3.63650641     19.31188945
  H     -1.64173489      2.21701486     19.58666651
  O      2.69444535      8.28771881     22.42976016
  H      2.74790303      7.87718328     23.29590268
  H      2.52581534      9.22741971     22.53038885
  O      8.87023935     -1.05906227     -0.72989244
  H      9.75624026     -1.06832858     -1.09937387
  H      8.22661883     -1.12678935     -1.43895216
  O      7.95144934     -1.59826858      3.69979346
  H      8.88697311     -1.47792389      3.52115294
  H      7.83407687     -2.32166345      4.31989310
  O      5.34653741     -3.96918421      1.92625345
  H      5.95037828     -3.42138054      1.41941291
  H      4.82754563     -4.51197996      1.32823981
  O     -3.71236814     10.02691930     15.49264531
  H     -4.25369019      9.44002516     14.95961087
  H     -3.03274600     10.42363352     14.94279845
  O      1.80805895      7.43076476     12.29208204
  H      2.01325170      6.59063747     12.70883385
  H      2.62038320      7.91805830     12.13627987
  O      5.84060642     -1.44469846     -2.29142639
  H      6.16715886     -2.34317065     -2.20361277
  H      6.46070891     -0.92768462     -2.81081986
  O     12.69217027      8.11871793     15.84928033
  H     12.64475674      9.07753873     15.84545480
  H     13.50929493      7.83661010     15.43176091
  O      3.14023994     10.72659844      3.82238400
  H      3.64506241     11.49726145      4.09225954
  H      3.50992627      9.94148927      4.23291488
  O      1.39129042      9.73317553      5.23138104
  H      1.15952334      9.25674000      4.43082298
  H      0.98205156     10.60146571      5.21739104
  O     10.02433331      5.45349120     10.63276352
  H      9.88831512      6.26405921     10.13670045
  H      9.18678623      5.15486627     10.99461713
  O      8.72584753      6.20439198      3.09080392
  H      9.44710398      6.24937350      2.45884997
  H      7.94968682      6.63256993      2.72224156
  O      0.34559402      5.97315751     11.48046352
  H     -0.51874604      5.74196180     11.13251983
  H      0.91697367      5.20205262     11.45760408
  O      6.85641871     11.48090010      6.05242371
  H      7.43275378     11.89394699      6.69959459
  H      6.48855349     12.15394135      5.47511040
  O     11.21211631      3.83110011      1.89628200
  H     11.73260964      3.17454447      1.42764419
  H     11.78239923      4.54947435      2.17968250
  O      8.87547483      8.77802058     -1.49604916
  H      9.00034370      9.53111068     -0.91392969
  H      8.02649383      8.85194688     -1.93805163
  O      6.36034842      1.13227728     20.88567782
  H      6.27556726      1.28081465     21.83031998
  H      6.32980366      0.18983918     20.70546277
  O     -0.62136043     -1.71552568     11.10773386
  H     -0.58642615     -2.44406666     10.48354829
  H     -1.41151226     -1.19425043     10.94794585
  O      5.17804067     -2.44046806     17.38001308
  H      4.97937372     -1.53451451     17.62776214
  H      4.36085361     -2.90775068     17.19172539
  O     -0.17286719      4.51014151     -0.99051628
  H      0.54860331      4.01239033     -0.59895008
  H     -0.57400192      5.07172538     -0.32319740
  O      7.43705214      3.34638210     19.07446619
  H      7.78297905      3.14871948     18.20104529
  H      6.77279171      4.03621648     19.00748401
  O     -2.32889752     -2.38515063      2.65116839
  H     -1.45691392     -2.70404531      2.89519871
  H     -2.84419017     -2.22229512      3.44461125
  O      2.33676801     -1.27672303     19.96273593
  H      1.60414449     -1.02918013     19.39389035
  H      3.16611138     -1.08242236     19.51997548
  O      1.01523459     11.45621488     -0.73450647
  H      1.32888993     10.55006076     -0.78038733
  H      0.75152595     11.65883431      0.16605065
  O      4.02395351      0.89231087      6.24768036
  H      4.15905055      1.77666699      6.59590881
  H      3.16390492      0.56714516      6.52369431
  O      1.17068216     12.37469828      9.83627209
  H      1.83755014     12.02919874     10.43419949
  H      0.44020113     12.73478339     10.34453992
  O      8.68568643      9.37844091      7.89697665
  H      9.12317089      9.35949898      8.75128839
  H      9.19138926      8.86048926      7.26642869
  O      3.09917896      7.57827183      3.02763109
  H      2.89474099      6.71083943      2.67074714
  H      2.31525368      8.13139874      2.99428772
  O      1.42093633     -0.62617290     15.34485701
  H      1.83077137      0.12557165     15.77904058
  H      2.08219324     -1.30346256     15.18480067
  O      8.41517066      5.04055224      0.34534709
  H      9.15766661      4.73011541      0.86872910
  H      8.11045239      5.88326857      0.68969573
  O      3.05625767      2.59419792      4.46824678
  H      3.66319082      1.85045577      4.47717782
  H      2.47956132      2.52803441      3.70362681
  O      4.66519318      3.65184032     11.97193757
  H      5.59096629      3.60900214     12.22235530
  H      4.55859805      4.26710549     11.24276937
  O      6.43272993     -0.84124222     -0.47256777
  H      6.34549323      0.05322050     -0.13503821
  H      6.86642992     -1.39076525      0.18434071
  O      7.79199863     10.33254465     12.68237707
  H      8.37769898      9.57511899     12.75210137
  H      7.97027017     10.80119858     11.86373017
  O      8.88232324      2.38589481      6.27549383
  H      9.43101879      2.30522870      5.49189560
  H      7.99387203      2.64409328      6.01939229
  O     11.16598493     10.33287938     13.74993151
  H     10.97092481      9.44813270     14.06738208
  H     11.33768392     10.91079302     14.49701603
  O      4.97370999      1.48907011     -2.91510592
  H      5.33101318      1.09323959     -2.11682487
  H      4.14563907      1.92991160     -2.71124976
  O      0.01683959     -2.60381785     17.04280535
  H      0.76941555     -2.42274426     16.47496577
  H     -0.75438415     -2.79117068     16.50270086
  O     -2.68065899      5.13259534     12.43656736
  H     -2.08009100      4.45361126     12.12049977
  H     -3.28047830      5.38385794     11.73039181
  O      1.82983163      6.40115691      0.05538460
  H      1.71413759      5.72675613     -0.61796410
  H      1.64489453      6.02621018      0.91956816
  O      0.08817643      1.64729752      3.30114465
  H      0.00678715      1.90152991      2.37900492
  H      0.23538031      2.42977077      3.83749028
  O      5.93947115      8.21511799     16.36044939
  H      6.43393424      7.53643657     16.82574261
  H      5.21368835      7.81020024     15.87994866
  O     12.74535460      6.15105641     11.65986702
  H     12.46346718      6.48333260     12.51528038
  H     12.42640486      6.73536194     10.96816035
  O     -2.19996995      1.51780134     13.53782509
  H     -1.63120288      0.84990996     13.14792109
  H     -1.70915189      2.00970570     14.20019033
  O     -0.21034841      0.52578620      4.93145913
  H      0.64624885      0.92739269      5.09441113
  H     -0.90430927      1.15621385      5.13780666
  O      5.78416462     -3.16470416     19.23726129
  H      6.47872787     -3.72773806     19.58679631
  H      5.28223194     -2.78686974     19.96314333
  O     -2.35185286     10.20710283      4.56395680
  H     -3.19379023     10.30427192      4.11306918
  H     -1.64333775     10.17749142      3.91686368
  O      6.35918892     -1.00331307     22.99988866
  H      6.02748197     -0.70434142     23.84970421
  H      5.78937128     -1.69687021     22.65946780
  O      3.46639578     -2.34549373     -0.63030833
  H      3.02792830     -3.09539263     -0.22165456
  H      3.68047337     -2.55718337     -1.54187746
  O     -2.74205466     -1.44486761      7.87896988
  H     -2.59669736     -2.16336789      8.49883163
  H     -3.48986152     -0.91751999      8.16929623
  O      3.32614713     10.11644293      0.22539357
  H      3.21597026     10.79670565      0.89375252
  H      3.21364702      9.25165628      0.62675099
  O     10.90879913      9.74868408      5.07299646
  H     10.61547687      9.31580533      5.87809151
  H     11.56007463      9.19814147      4.63215288
  O      9.07943568     -1.17514538      8.07332271
  H      9.47872606     -0.30217114      8.06420269
  H      9.50775122     -1.73030343      7.41762054
  O      4.21371595      5.44456856      0.87988482
  H      3.77515566      4.72026285      1.33226311
  H      4.77176859      5.91899080      1.50044972
  O      5.04495733     -4.42532575     10.15274006
  H      5.04828565     -4.01245297     11.01941474
  H      4.90474233     -5.37019667     10.24844122
  O     -0.49073676      1.38246953      7.10509393
  H     -0.13824050      2.16926756      6.68284371
  H      0.13418879      0.66005639      7.00924336
  O      5.16276585      5.71343710     -1.47291412
  H      5.12610997      5.87791597     -2.41800832
  H      4.37335149      6.06580128     -1.05546417
  O     10.51959782      0.68280779      4.60473898
  H     10.18590448      1.26808806      3.92085612
  H     10.42820878     -0.22904691      4.31878610
  O      3.07583427     12.73932950     14.77604075
  H      3.25647895     12.00019186     14.19068356
  H      3.03497859     13.55066300     14.26450506
  O      4.26143374     -0.20960018     -4.15377556
  H      4.79464265      0.28878573     -4.77739383
  H      3.60464286     -0.72167136     -4.63127829
  O      6.15809632      7.09630731     21.80103748
  H      5.56916817      7.52493264     21.17570240
  H      6.71086691      7.75676955     22.22510624
  O     -4.09751729      6.34323691      8.09425029
  H     -4.86841335      5.78500280      7.96897480
  H     -3.30486693      5.84980768      7.87101725
  O      4.36669453     10.72477793      9.44522969
  H      3.86639013     11.38916055      8.96575994
  H      3.83195083      9.93435965      9.54957590
  O     -0.83510341     -1.01277267     14.43591764
  H     -0.26819583     -1.67445549     14.83889611
  H     -1.22002208     -0.46070189     15.12050180
  O      6.61184045     10.28823194     -0.09773760
  H      6.10032497      9.48545658     -0.22225116
  H      6.72484236     10.73043963     -0.94229839
  O      1.05065363      3.92092730     17.57442764
  H      1.12063178      3.01042147     17.27831585
  H      1.00040232      4.50273878     16.81247606
  O      6.55721112     10.26140762      4.33136634
  H      5.63293273     10.44916835      4.51040648
  H      6.63174440      9.41387111      3.88670168
  O      3.38453497     -2.65425223     11.54552897
  H      2.71981294     -2.66028742     10.85291927
  H      4.15129990     -2.15823840     11.24948534
  O     -0.42762775      3.67046201      1.33811642
  H     -1.04820834      3.62913776      2.06939751
  H     -0.60876159      2.95573755      0.72333232
  O     10.48012110      4.45387246     17.42872556
  H     11.24823237      4.91092735     17.07843154
  H     10.01145662      4.01938117     16.71236606
  O     -3.15725199      5.13901597      5.47428050
  H     -2.36151643      5.05114931      6.00407704
  H     -3.91423657      5.26399354      6.05130300
  O     -6.64634653      5.31527125     12.38909197
  H     -7.05388301      4.44631007     12.40959790
  H     -6.54365212      5.59963461     11.47794360
  O      8.14820891     12.85406232     16.55993171
  H      7.22121014     12.95200089     16.78945583
  H      8.23966973     12.81647588     15.60503790
  O     13.12246820      3.63474952     19.74479184
  H     12.47997767      4.30095807     19.48989563
  H     13.10454778      2.91342149     19.11157407
  O      0.77692265      7.19277101      6.58601062
  H      0.23697238      6.66192817      5.99587538
  H      1.32335995      7.79008341      6.07004145
  O     11.22738073      4.95403823      9.06155918
  H     11.32660649      4.04521320      8.76865763
  H     12.09373780      5.35659038      9.15630725
  O      3.40836541      6.75657639     10.71135176
  H      3.46387626      5.94729775     11.22475865
  H      4.29286066      7.08524681     10.53459231
  O      5.90214158     -2.09889283     14.71749859
  H      6.52539583     -1.59588328     15.24677690
  H      5.25052473     -2.50754977     15.29195050
  O      0.95369690      6.45709808     23.51143028
  H      1.15896739      5.52027439     23.55415498
  H      0.62060379      6.67262742     22.63724719
  O     -0.13401448      4.34382273     21.93582116
  H     -0.27389592      4.14994234     22.86557574
  H      0.23946393      3.57395879     21.50059318
  O      8.20694051      0.81932781      3.48223216
  H      7.92002383      1.07378185      4.36230714
  H      7.54127519      0.25804470      3.07794147
  O      3.31992431      6.52468781     17.02413146
  H      2.93289135      7.24204864     16.51698362
  H      4.14113019      6.82111494     17.42332048
  O      3.99611170      5.84094009     19.54255927
  H      4.59387664      6.59210923     19.54724924
  H      4.34802068      5.15492584     18.97059378
  O      5.04021094     -3.86686974     13.54388000
  H      5.00329982     -3.06526822     13.01693353
  H      5.05660990     -4.63140282     12.96351783
  O     -1.92433987      8.73884273     15.07046006
  H     -2.43489818      8.23697852     15.71004003
  H     -1.33795724      9.34304009     15.53165519
  O     -0.08006277      0.34680507     17.55212459
  H      0.49726359      1.02228381     17.91547395
  H     -0.91031984      0.74613250     17.28228984
  O      5.98673823      3.95902710      7.91043801
  H      6.71614069      3.54675387      8.37905601
  H      5.34707203      4.29312664      8.54352936
  O     -1.52391232     10.96726178     11.23607784
  H     -1.31979412     11.90255159     11.30797188
  H     -0.71227155     10.45721783     11.28798584
  O      2.77137857      1.91232603      1.80883627
  H      2.05235579      1.73197272      1.19885353
  H      3.57804325      2.07463628      1.31431886
  O     10.65701217      2.90738321     13.43366875
  H     11.20065653      3.61138644     13.07251745
  H      9.88576038      2.78009096     12.87638304
  O     -3.96324010      5.41625029      1.01569356
  H     -3.99706810      5.48290097      0.05860769
  H     -4.32113901      4.56899564      1.29077159
  O     10.69583766     10.16222298     19.24444818
  H     10.49672211      9.50838251     19.91857402
  H     10.89932703     11.00200921     19.66271985
  O     -3.60266793      3.42113283      9.46798605
  H     -4.28662640      3.97108560      9.07894520
  H     -3.81209377      2.49612461      9.31932333
  O     12.12032687      3.15578792     10.40422624
  H     11.64180527      2.37077706     10.12786592
  H     11.52965094      3.73719679     10.88864927
  O      6.31224325      9.70581920     11.14265610
  H      5.54684318      9.23482363     10.80512697
  H      6.90098179      9.92290135     10.41611479
  O      4.53503042      9.83250025     22.94833314
  H      5.37426267      9.43251846     23.18771525
  H      4.67190997     10.75668371     22.72754153
  O     10.96912669      7.62936608     18.48623859
  H     11.60801714      8.27637972     18.79412226
  H     10.59660678      7.91948421     17.65037952
  O     -0.29468011     -3.09988149     20.55430041
  H      0.33799840     -3.58869369     21.08569530
  H     -0.88659233     -2.61049992     21.13027402
  O      2.22734516      1.93209764     23.62216728
  H      2.62978227      1.43765808     22.90441112
  H      1.59012850      1.37610091     24.07650478
  O      6.48817080      0.45987879     11.70832186
  H      6.32671297      1.36434856     11.98664865
  H      5.65007464      0.01541921     11.56118070
  O      7.29408073      8.65941637     19.71870684
  H      6.72742082      8.05957596     19.22810718
  H      8.10258057      8.81283177     19.22434692
  O      3.98443082     11.29323075      6.07001214
  H      4.60308690     10.58039115      6.24529586
  H      3.10196871     10.93176479      5.95954500
  O     11.13402950      1.33419641     16.68199406
  H     11.27516890      0.51406879     17.16060701
  H     10.36299534      1.78328941     17.03614347
  O      6.69385656      8.15170960      9.47505466
  H      7.51616476      7.78356183      9.14357850
  H      6.05846882      8.21366775      8.75808631
  O      0.14692373      6.47795875     18.94596845
  H     -0.58728050      5.94397791     18.63386493
  H     -0.01797858      6.75171107     19.85121256
  O      2.98546787      2.67913474     11.30082473
  H      2.25602821      2.21414312     11.71711858
  H      2.93103425      2.57329126     10.34823136
  O     10.13144146     11.32561264     11.16717330
  H      9.72100662     11.76753287     11.91406670
  H     10.82705324     10.74364537     11.48187689
  O      7.39440133      2.55230914      0.75544819
  H      8.05672905      2.85152678      0.12823945
  H      7.38692941      1.59265813      0.78022943
  O      2.02989193     -4.06802962     16.28765133
  H      2.80143980     -3.64399023     15.90489229
  H      2.30356330     -4.84137826     16.78628532
  O     -1.19190450     -0.59738750     18.98398573
  H     -2.05079974     -0.96248183     18.75902996
  H     -0.50426518     -1.21973432     18.73612165
  O      4.54904842      3.44460929      3.21543182
  H      5.28239682      2.99629739      2.78786128
  H      4.64433477      4.39330523      3.10364394
  O     11.94958853      3.60629782      4.22156491
  H     11.02244546      3.37847717      4.32208104
  H     12.38315307      2.94959249      3.67169228
  O      9.30840772      0.15490716      1.36555806
  H      9.88848175      0.57924593      2.00199402
  H      9.52225274      0.46301365      0.48184957
  O     -1.54446452      9.07450467     -1.41099033
  H     -2.39552460      9.48608934     -1.24397298
  H     -1.18129685      9.41165401     -2.23320659
  O      8.24158681     10.52909388      2.41009851
  H      7.62305815     11.24102476      2.58947721
  H      8.33298647     10.41546216      1.46123923
  O      7.65797246      4.80568855      4.05994480
  H      7.67787100      3.92330984      4.43758466
  H      6.78786089      5.19008851      4.18933767
  O     -2.01669531      2.21741696     21.55562042
  H     -2.20099894      2.48494359     22.45898175
  H     -1.95718251      1.26031902     21.51065638
  O      4.97902818     12.21545317     10.73646028
  H      4.88479817     13.15168491     10.92669918
  H      5.88935286     11.94856646     10.88370314
  O      1.07847436     11.08817935     17.03657665
  H      0.99334750     12.01979769     16.82107565
  H      0.85217135     10.55947495     16.26790337
  O      6.34264955      8.84657661     14.21693472
  H      6.70088344      9.72891776     14.33835373
  H      6.32431012      8.63417001     13.28090742
  O      6.51682459      4.67574907     16.24473964
  H      6.35025266      4.75032099     17.18723252
  H      7.33646848      5.12588707     16.02757685
  O     -4.09027649      7.16533084      5.33827145
  H     -3.42928025      7.37255868      4.67363577
  H     -4.85685770      6.77102157      4.91581028
  O      8.63046822      2.95689525      8.41483296
  H      8.50356605      2.02692940      8.21319129
  H      9.55946811      3.12271343      8.59108146
  O     10.11176267      6.62316838     12.25330720
  H     10.05619924      5.90372468     12.88648449
  H     10.06174602      7.46244472     12.71667915
  O      4.95340001      0.21092041     16.58151814
  H      5.78559679      0.04111146     16.13406597
  H      4.32323640      0.57852125     15.95752820
  O      4.51599915      3.50352445     -4.62334386
  H      4.06218635      2.73433076     -4.97547313
  H      5.44660136      3.46054653     -4.85514644
  O     -2.02235600      5.42012062     15.50629847
  H     -1.33222829      5.53451088     16.16374704
  H     -1.88913237      4.58995302     15.04297004
  O     11.27056360      7.90880870      1.96326255
  H     10.75619270      8.56311357      2.44170556
  H     11.62880021      7.26796794      2.58180087
  O      6.88108256      4.28779999      1.60890292
  H      6.13819105      4.17238155      1.01191816
  H      6.70824693      5.02714165      2.19635654
  O     -2.99912282      2.49484698      7.22583660
  H     -2.57865806      2.29840410      6.38546788
  H     -2.38355052      2.96991015      7.78885145
  O      7.94400761     -3.87117355     12.34637299
  H      7.03198002     -3.62432016     12.51628200
  H      8.34533673     -3.22872824     11.75662816
  O     -3.20254295      2.12487246     17.56395999
  H     -2.91015806      1.34668960     18.04410841
  H     -3.17939379      2.88799202     18.14595025
  O     -4.44138893      0.54518528     19.66058048
  H     -4.37141618      1.49210101     19.80219414
  H     -4.89079794      0.37788750     18.82892972
  O      4.42418134      5.54613625      4.72327387
  H      5.16990894      5.89826561      5.21469555
  H      3.85106072      5.05654966      5.31778017
  O     -4.38522594     -1.10133194     10.95944861
  H     -4.65841751     -0.21354158     11.20192469
  H     -3.90466724     -1.07312187     10.12886597
  O      3.49717257      8.71945999      6.20417674
  H      3.20142511      9.07599429      7.04501961
  H      3.64173099      7.77428818      6.28992709
  O     -0.63706680      0.19441763      0.30956975
  H     -1.27976016      0.09928292      1.01631910
  H      0.11565713      0.69884134      0.62668711
  O      1.75713998     -1.63912468      6.36033133
  H      1.86571154     -0.87994897      5.78286752
  H      1.02160464     -2.17356166      6.05216760
  O      1.56640142      5.24786098      6.78186405
  H      0.77222086      5.09896516      7.30023389
  H      2.31822698      5.35093891      7.36985493
  O     -1.10898220     -1.98438554      0.19687392
  H     -1.93913026     -2.20591505     -0.23135368
  H     -0.61040787     -2.78751589      0.36422171
  O     13.05296191      2.10630426     15.48842793
  H     12.89413613      1.50980954     14.75319435
  H     12.61786244      2.94533127     15.32013614
  O      3.80250780      1.65526748     13.90132866
  H      2.86173527      1.79087163     13.76657493
  H      4.24699716      1.62530011     13.05095747
  O      2.12060749     -3.63104585     19.32400985
  H      2.91634833     -3.70058619     18.79150572
  H      1.37309121     -3.42545601     18.75783654
  O     10.74588278      5.66984453     21.00268728
  H     11.46612868      5.21684365     21.44725003
  H     11.05016893      6.00003789     20.15416958
  O      4.71443594      7.34937963     -4.76324798
  H      4.33218720      6.56053314     -4.37183116
  H      5.01223744      7.94020109     -4.06765883
  O      1.99819538      6.11935543     21.22768093
  H      2.49035471      6.06252669     22.04996415
  H      2.42019605      6.75487082     20.64489826
  O      6.02749747     12.11008049     14.12007353
  H      6.95935249     11.94062602     13.96344848
  H      5.73108008     12.82291024     13.54945064
  O      3.45423334     -1.25319599     21.96938237
  H      3.66325843     -2.10053666     22.36928525
  H      3.47715459     -0.56754839     22.64091941
  O     -1.95797619     -0.22795157     -2.06585627
  H     -1.48787113      0.33819261     -2.68236418
  H     -2.41458014      0.31349212     -1.41781957
  O      6.00640954      1.75325664     15.11051239
  H      5.37646894      2.43295141     14.85993330
  H      6.24693576      1.23833355     14.33681908
  O      6.08002046     -4.14291101      7.53399234
  H      5.54893715     -3.71492274      8.20954882
  H      6.69691808     -3.50854182      7.16168457
  O      6.51319160      7.59648118      6.48763105
  H      5.95268733      8.36336812      6.62662520
  H      7.16832894      7.54729195      7.18761354
  O     10.23480371      6.68593283      5.05688079
  H      9.95259682      7.40460956      4.48638712
  H     10.51386889      7.04019422      5.90436029
  O      8.74039077      7.96254905      1.42943702
  H      8.73814718      8.58527628      2.16005714
  H      8.35642002      8.37747123      0.65354653
  O      8.22302605      4.65239233     13.18904930
  H      7.42310464      4.52813026     12.67302151
  H      8.03121929      4.50490185     14.11805777
  O     -3.81747700      5.38552365      3.05735325
  H     -4.19261704      6.26655205      2.98909702
  H     -2.90168861      5.40402109      2.76996940
  O     -0.99344445      7.86747755      7.73455657
  H     -0.88374479      6.91602039      7.80009474
  H     -1.58696495      8.16999274      8.42580036
  O     -1.85116131      7.19401161     11.53028272
  H     -1.54121608      6.91111476     12.39370807
  H     -2.69153726      7.64841660     11.62453970
  O     -2.83820816     10.59981212      7.33823372
  H     -3.33022574      9.78654722      7.20362720
  H     -2.16232956     10.68121754      6.66135760
  O     -1.63012958     10.57462263     18.26095912
  H     -1.31546581     10.55017479     17.35432302
  H     -2.44168346     10.06679390     18.33230538
  O     -1.39353587      8.34566083     20.19164622
  H     -2.22099894      8.81069980     20.04796729
  H     -1.32148386      8.09803759     21.11635766
  O     -1.47403708     10.12423000      8.94302273
  H     -0.77468841     10.67758557      9.29842258
  H     -2.06832097      9.86471906      9.65089330
  O     -2.92651328     -3.07388294     19.62759510