62
Energy =    -96.27195646 au
  N      8.80496828      4.04828182      5.01486085
  C      8.15443622      4.76889629      4.10806859
  N      6.84977869      4.68909322      4.34648516
  C      6.65789989      3.85769405      5.40691477
  C      7.88497828      3.45710944      5.82863304
  C     10.22464782      3.82099126      5.09046624
  C     10.57656989      2.51104416      4.39209884
  C      5.80519245      5.30071798      3.57908675
  H      8.60582611      5.35013273      3.33105615
  H      5.66454701      3.63802058      5.74943450
  H      8.18920996      2.85386795      6.65799460
  H     10.73264444      4.65574545      4.60320762
  H     10.49336564      3.79916968      6.15168921
  H     11.65505946      2.40339482      4.31481718
  H     10.14136680      2.50637429      3.39465424
  H     10.17627965      1.66576118      4.94618332
  H      4.84963846      5.02217124      4.02247210
  H      5.86958733      4.94335434      2.55081743
  H      5.90978986      6.38655926      3.59256562
  N      3.35621781      1.53485510      4.09643970
  C      3.24987969      2.04249198      2.87467078
  N      4.46573643      2.19723957      2.36045131
  C      5.37577982      1.73890587      3.26455816
  C      4.67911116      1.32430077      4.35328270
  C      2.26456234      1.17451110      4.96008666
  C      1.94114191     -0.30707563      4.80318494
  C      4.77328011      2.63215038      1.02971649
  H      2.33538862      2.34132737      2.40748412
  H      6.42826733      1.78875731      3.06079571
  H      5.01815177      0.92530221      5.28623620
  H      2.54504100      1.43008527      5.98489448
  H      1.40231263      1.78091138      4.67669785
  H      1.01975554     -0.55168844      5.32574450
  H      2.74742303     -0.92149126      5.19853003
  H      1.82564306     -0.52700560      3.74279968
  H      5.85151137      2.77915124      0.95473319
  H      4.25183313      3.56300368      0.80554928
  H      4.44656521      1.86511162      0.32460583
  N      7.58126451      7.37104630      7.11054538
  C      7.43241624      6.25051444      7.81095474
  N      6.16687652      5.85542720      7.71721810
  C      5.49317982      6.74536930      6.93434925
  C      6.38529968      7.69944715      6.55058253
  C      8.80368817      8.12250363      6.95587334
  C      9.85152874      7.29844990      6.21927496
  C      5.58911524      4.71373478      8.36586467
  H      8.22865586      5.69107558      8.28961547
  H      4.46258236      6.59424371      6.68569736
  H      6.29179770      8.60626816      5.97370376
  H      8.54612169      9.03888075      6.40854151
  H      9.17656102      8.38669221      7.94934336
  H     10.77203526      7.86977094      6.13997186
  H      9.50365561      7.06137344      5.21675166
  H     10.05473198      6.37480267      6.75789006
  H      4.77678485      4.33002941      7.74166602
  H      5.18346158      5.00045505      9.33856846
  H      6.35558619      3.95549389      8.50637363
 Cl      8.11681994      3.19532415      1.85236151
 Cl      2.37967578     -0.02611359      1.35736053
 Cl      9.82505379      4.24448570      8.46792110
 Cl      7.22981710     10.65593503      5.46075712
 Cl      3.37087977      4.10398656      5.92357327
