62
Energy =    -96.09983875 au
  N      6.25393110      2.64335119     16.25644170
  C      5.03613016      2.47399357     15.66021170
  N      5.17250712      2.72519064     14.33422334
  C      6.47219228      3.04428026     14.08824669
  C      7.14787235      2.98478987     15.26191000
  C      6.55677289      2.38090045     17.63253110
  C      6.81804116      0.89574932     17.88792579
  C      4.13877336      2.68737905     13.34189816
  H      4.13111067      2.20682577     16.16165047
  H      6.78276779      3.28384790     13.08320233
  H      8.17914053      3.16993297     15.47582340
  H      7.43938187      2.96762684     17.90575586
  H      5.71309152      2.71706261     18.24634073
  H      7.05277897      0.73437956     18.93541146
  H      7.65296084      0.54918680     17.28617298
  H      5.93996469      0.30765985     17.63075184
  H      3.35622943      3.41243814     13.57655159
  H      3.69376408      1.69100679     13.28662387
  H      4.60241416      2.94038945     12.38015892
  N      4.32645637      6.12162315     10.31902087
  C      5.43187733      6.37471420     11.01284431
  N      6.42027889      6.66015825     10.16992155
  C      5.91764133      6.63969549      8.90134698
  C      4.60763773      6.30247524      8.99166888
  C      3.03192532      5.83964340     10.87856572
  C      2.19678112      7.11543917     10.94311245
  C      7.73210283      7.05059907     10.58411232
  H      5.54588622      6.23073877     12.06709888
  H      6.52428554      6.85281629      8.04379211
  H      3.87048750      6.16302942      8.22729123
  H      2.54796444      5.06952167     10.26971451
  H      3.19231956      5.44454332     11.88380864
  H      1.29141518      6.94983197     11.52116224
  H      1.92351429      7.44735296      9.94363947
  H      2.79071625      7.89671968     11.41491748
  H      7.63495937      7.91596112     11.24686013
  H      8.32809282      7.31654862      9.71423307
  H      8.20889157      6.22924115     11.12166482
  N     10.67113761     16.71939680    -10.67520956
  C     11.42466219     17.13775799     -9.54735227
  N     10.68197988     18.20632911     -8.98312606
  C      9.55916465     18.40985853     -9.75454138
  C      9.55240135     17.52197299    -10.76743138
  C     10.76860668     15.41186905    -11.25402912
  C      9.95707202     14.35823461    -10.48989836
  C     10.82770271     18.62748322     -7.62448126
  H     11.74987481     16.35826906     -8.85750642
  H      8.87060219     19.20193380     -9.53487837
  H      8.85746752     17.41350408    -11.57667539
  H     10.41399540     15.46486002    -12.28890862
  H     11.82466756     15.12759877    -11.26295936
  H     10.06506505     13.38437422    -10.96003056
  H      8.90371458     14.63032531    -10.47957195
  H     10.30598077     14.29021517     -9.46213619
  H     10.41979333     17.89220347     -6.91516359
  H     10.30928290     19.57505732     -7.47841478
  H     11.88711122     18.76387745     -7.40122761
 Cl      5.09771212      8.78882654     11.89275060
 Cl      6.18767273      3.61068100     10.92046470
 Cl    -17.34782532     -9.32595855      3.58144770
 Cl    -15.73028503    -10.83869976      4.49957857
 Cl     31.10336828    -19.57784558    -20.74376115
