62
Energy =    -96.26626256 au
  N      4.00202211      8.18554307      1.37616089
  C      4.11437635      8.18060362      2.69918522
  N      5.33292109      8.58785911      3.03222644
  C      6.00327871      8.92004831      1.89402265
  C      5.17069536      8.66408506      0.85395904
  C      2.82479466      7.81560198      0.63902111
  C      1.96750111      9.04445560      0.35625409
  C      5.82610887      8.78168301      4.36273516
  H      3.37535014      7.80693618      3.37510000
  H      7.01521487      9.27403418      1.93349318
  H      5.31633379      8.77533061     -0.20081062
  H      3.13906322      7.32204619     -0.28585467
  H      2.27749794      7.09290089      1.24659219
  H      0.98822504      8.75109516     -0.01288826
  H      2.44752712      9.68682839     -0.37950117
  H      1.85459501      9.60868771      1.28103053
  H      5.29544128      9.62140147      4.81658666
  H      6.89357947      8.99527332      4.30467038
  H      5.65099660      7.88421633      4.95591773
  N      8.04464422      5.57353353      5.56296831
  C      8.18368537      6.17550678      4.38358392
  N      7.50880773      5.48915768      3.47252525
  C      6.92310339      4.41939218      4.07662303
  C      7.25944302      4.47242641      5.39480957
  C      8.59474041      6.02241703      6.81946804
  C      8.05035272      7.39691783      7.19025284
  C      7.40262760      5.83693085      2.08677537
  H      8.71104752      7.10115487      4.16691424
  H      6.27723031      3.75819481      3.53789970
  H      7.04877084      3.81898458      6.22259928
  H      8.32763090      5.27398819      7.57337849
  H      9.68375196      6.07047022      6.72989185
  H      8.46767499      7.70753701      8.14379779
  H      6.96735122      7.36731393      7.28310844
  H      8.31728048      8.13101283      6.43395387
  H      7.81593895      6.83305854      1.94518852
  H      6.34393276      5.80738054      1.81095385
  H      7.94939574      5.11802266      1.47449898
  N      3.61121134      4.61074577      8.03117848
  C      4.41109547      3.95151900      8.86594341
  N      3.70548339      3.57868372      9.92784604
  C      2.42213320      4.00134224      9.77672220
  C      2.36088717      4.64810927      8.58142893
  C      3.97684087      5.11188402      6.72504235
  C      3.61909301      4.10296284      5.64244992
  C      4.18769352      2.84868572     11.06616506
  H      5.47079434      3.75083221      8.70540688
  H      1.69089122      3.78912911     10.54416710
  H      1.54050270      5.12894592      8.09061904
  H      3.45097348      6.05441359      6.55495835
  H      5.05291229      5.29155898      6.72400912
  H      3.85033543      4.50946167      4.65908204
  H      2.55765918      3.86745205      5.67529484
  H      4.18826894      3.18757058      5.78209279
  H      4.59033897      1.88728706     10.74936605
  H      3.34381243      2.69969630     11.74948184
  H      4.97983189      3.40880855     11.56185685
 Cl      2.81822735     10.41520974      3.39196097
 Cl      9.20551065      8.93556635      3.24075321
 Cl      4.20229827      5.19601011      2.37756305
 Cl      1.19068548      2.83355896     12.52608452
 Cl      7.49738720      3.26336940      8.47995493
