62
Energy =    -95.81993617 au
  N      8.46873481      5.37881108      3.77227076
  C      8.90174735      6.46748397      4.41912917
  N     10.23764796      6.47606336      4.37221158
  C     10.66392820      5.38985496      3.65966187
  C      9.54631211      4.69628191      3.27867293
  C      7.06166266      5.02916811      3.54572255
  C      6.72959051      5.01136860      2.06538971
  C     11.09198527      7.56828770      4.82402557
  H      8.28745125      7.24265918      4.84026461
  H     11.70416786      5.21033911      3.45903589
  H      9.44371914      3.80823851      2.68302420
  H      6.88751685      4.05866890      4.00951272
  H      6.47106284      5.77370731      4.07447444
  H      5.67789886      4.75584703      1.94352238
  H      7.32948338      4.27739351      1.53144009
  H      6.91368800      5.98372147      1.61928654
  H     11.44897869      8.10935648      3.95192239
  H     11.92075810      7.15387443      5.39158324
  H     10.50398378      8.24025002      5.43878983
  N      2.80742979      6.24205732      2.85899346
  C      2.62498790      6.26003341      4.18471068
  N      2.36377272      5.01203622      4.58617665
  C      2.40769599      4.17880005      3.50308899
  C      2.68954827      4.95522752      2.41085205
  C      3.17255203      7.40104255      2.03627521
  C      4.52651636      7.20641980      1.37986325
  C      2.25587816      4.57592479      5.97367357
  H      2.74050206      7.11165652      4.83047063
  H      2.26498073      3.11755109      3.59229810
  H      2.84007293      4.68622272      1.38181242
  H      2.38300202      7.53938780      1.29819109
  H      3.17570387      8.26135119      2.70154541
  H      4.76075088      8.08972054      0.78731601
  H      4.53039561      6.33772303      0.72484880
  H      5.29924095      7.06517508      2.12907394
  H      3.16948532      4.05234157      6.24190156
  H      1.39108500      3.92521446      6.07079890
  H      2.15182671      5.44942074      6.60722889
  N      8.48951489     10.58123455      7.67354018
  C      7.37862298      9.85796041      7.85773580
  N      7.05302546      9.29045272      6.69204863
  C      7.98692254      9.63433477      5.75456690
  C      8.89634198     10.44919760      6.37441907
  C      9.20790555     11.31593314      8.72118478
  C     10.60788405     10.76562733      8.91916902
  C      5.99773146      8.30252237      6.49883800
  H      6.87341999      9.69636721      8.79275929
  H      7.95027282      9.26105560      4.74764350
  H      9.79414546     10.90605774      6.00136207
  H      9.22498379     12.36596380      8.43059788
  H      8.61347909     11.21956494      9.62677611
  H     11.10080331     11.33259070      9.70770017
  H     11.20024287     10.84751256      8.01026918
  H     10.57181156      9.71847196      9.20295494
  H      6.45738495      7.32296015      6.39913742
  H      5.43408021      8.56101268      5.60653509
  H      5.35516215      8.30258773      7.37194675
 Cl      6.99522432      2.39509479      5.12646329
 Cl      2.24556741      0.92979234      6.64167547
 Cl      4.61103562      5.12208829      3.72572459
 Cl      0.58981484      7.91828037      2.09935109
 Cl      0.36773851      0.70384194      7.29183315
