62
Energy =    -96.24159005 au
  N      3.44518224      3.77098837      2.73774951
  C      4.36150053      2.95127181      2.23360074
  N      3.81658355      1.75688625      2.03426333
  C      2.49975442      1.82563830      2.38304674
  C      2.26434442      3.08771153      2.82220370
  C      3.66312494      5.16064233      3.04409979
  C      3.37249542      6.02697365      1.82299791
  C      4.52053984      0.64263214      1.47485344
  H      5.39200039      3.18591086      2.09013305
  H      1.84224119      0.98463905      2.29837380
  H      1.36728858      3.54104161      3.18968061
  H      3.02357269      5.43486155      3.88764321
  H      4.70762515      5.26452846      3.34641899
  H      3.73646715      7.03775886      1.98031944
  H      2.30451153      6.06418222      1.62304475
  H      3.86719850      5.59448582      0.95554961
  H      3.84071979     -0.19691954      1.34795221
  H      5.33748677      0.36299491      2.14187152
  H      4.92675532      0.94644079      0.50684404
  N      8.98371671      4.25937706      5.19915962
  C     10.09781529      4.89409941      4.78913722
  N      9.74650498      6.06435489      4.21182721
  C      8.37796742      6.13809929      4.23366828
  C      7.90922762      5.02996689      4.85987217
  C      8.92665454      2.98675063      5.86315860
  C      9.11514767      3.14295909      7.36995420
  C     10.63918197      6.87643812      3.44148249
  H     11.09238086      4.51280872      4.85377508
  H      7.85290648      6.97269100      3.81532127
  H      6.90969550      4.69261012      5.05386892
  H      7.94898001      2.54663206      5.64486676
  H      9.70922099      2.34867288      5.44532782
  H      9.07248891      2.16834398      7.84681010
  H      8.32548376      3.76383246      7.78593599
  H     10.07599587      3.60193776      7.59372873
  H     10.11017183      7.74967672      3.06532072
  H     11.01328934      6.28054169      2.60241389
  H     11.48590606      7.19576867      4.05172878
  N      7.58830441      3.76425951      0.78375015
  C      7.83246108      3.12117028      1.91903817
  N      8.04141593      1.83622363      1.66149708
  C      7.97294175      1.66194871      0.31022661
  C      7.68884142      2.87157109     -0.23886399
  C      7.32979105      5.17238908      0.64380855
  C      8.57506672      5.88797741      0.13049589
  C      8.36648640      0.86135631      2.65958777
  H      7.77626548      3.53103009      2.90677496
  H      8.13186427      0.70902430     -0.15141257
  H      7.51317000      3.15262512     -1.25558050
  H      6.48124516      5.28495122     -0.03636598
  H      7.05407209      5.55455742      1.62933437
  H      8.44909530      6.96402700      0.20542833
  H      8.76879783      5.63081604     -0.90701907
  H      9.43011807      5.57980381      0.72786136
  H      8.27693334     -0.14033769      2.24472701
  H      7.68488603      0.99088691      3.50395708
  H      9.38979963      1.02872873      3.00123564
 Cl      5.87532561      2.34935328      4.47865449
 Cl    -45.93907042     33.71665117     36.19529550
 Cl     10.45902906      3.73043617      2.25376139
 Cl     15.17994346     21.37088905     21.68527541
 Cl      4.61152917      3.54017479     -0.34240001
