62
Energy =    -96.26460845 au
  N      4.37227714      1.97171464      7.82295964
  C      5.42799961      1.54720468      8.50891974
  N      5.40180367      2.09305737      9.72012167
  C      4.30755374      2.89552852      9.81484486
  C      3.65916280      2.82022000      8.62100341
  C      4.06571982      1.60134061      6.45979548
  C      4.36370553      2.73689282      5.49064479
  C      6.34780602      1.89240705     10.78158003
  H      6.14714032      0.83459104      8.11462613
  H      4.10188257      3.41668424     10.73953011
  H      2.75870368      3.29213897      8.28720016
  H      4.67589899      0.72909013      6.22100959
  H      3.00877039      1.33110607      6.39928537
  H      4.03739380      2.45247484      4.49256549
  H      5.42941781      2.94874911      5.46756176
  H      3.83018015      3.64087679      5.77765116
  H      5.96197312      2.40753133     11.67097839
  H      7.31645770      2.30981240     10.50720539
  H      6.46677221      0.82843519     10.98091895
  N      5.72499048      0.53367993      1.64205558
  C      6.78239116      1.16514481      2.13270284
  N      6.94570277      0.80556186      3.40274124
  C      5.96058857     -0.07567838      3.73066281
  C      5.19066391     -0.24334685      2.62261644
  C      5.23015563      0.67852325      0.29738722
  C      5.28195326     -0.64580557     -0.45435166
  C      7.97277091      1.25491607      4.29980832
  H      7.40166457      1.83324741      1.53982240
  H      5.91424426     -0.50968174      4.71154904
  H      4.29873451     -0.81535426      2.47949657
  H      4.20291112      1.04904161      0.36488001
  H      5.86736378      1.41526173     -0.19633677
  H      4.90800074     -0.50151579     -1.46407994
  H      4.67301812     -1.40215275      0.03657260
  H      6.30828930     -1.00150882     -0.51409826
  H      7.85381424      0.72460354      5.24866816
  H      7.88592851      2.32896441      4.46599058
  H      8.95638819      1.04778154      3.87852475
  N      3.19071782      5.08936334      0.53634044
  C      2.05298532      4.49019136      0.86710330
  N      1.03685300      5.28405571      0.54281355
  C      1.53259576      6.42144674     -0.01448353
  C      2.88765790      6.29890097     -0.02006247
  C      4.50848145      4.50974438      0.67706382
  C      5.11400418      4.21323020     -0.68665168
  C     -0.36281907      5.02797646      0.73650730
  H      2.01443569      3.52114469      1.35210052
  H      0.85476334      7.18780366     -0.36437101
  H      3.64354234      6.97173399     -0.36778186
  H      5.14502700      5.20803810      1.22591920
  H      4.39618013      3.59320804      1.26073834
  H      6.10777791      3.78513437     -0.55872769
  H      5.20465533      5.12189179     -1.27833708
  H      4.49473125      3.50317039     -1.22941494
  H     -0.91725206      5.85262227      0.27065286
  H     -0.59389471      4.98337337      1.80067067
  H     -0.63948566      4.08054447      0.27599642
 Cl      8.16460428      2.66829756     -0.27852549
 Cl      6.94987604     -0.70498310      6.88009338
 Cl      2.88526179      1.83886355      2.40202043
 Cl     -1.25549107      7.82160785     -0.79807544
 Cl      4.62217741      3.72735756     12.91189771
