62
Energy =    -96.26176221 au
  N      4.72519082      1.77326984      4.68019474
  C      6.03180173      1.58502591      4.51748519
  N      6.66627829      2.73795941      4.66636916
  C      5.73765028      3.69423667      4.95128390
  C      4.52012035      3.09118694      4.96903049
  C      3.76252931      0.69421238      4.68877246
  C      2.34377557      1.17224637      4.94091533
  C      8.07635097      2.91698453      4.48986009
  H      6.49674213      0.66428553      4.23309059
  H      6.00527621      4.71630241      5.12413064
  H      3.54437761      3.51232026      5.09007366
  H      3.82454139      0.18075675      3.72352133
  H      4.08215041     -0.00514607      5.47092622
  H      1.65698680      0.34015879      4.81015701
  H      2.06979615      1.96186918      4.24287900
  H      2.23890229      1.54544966      5.95651738
  H      8.61272037      2.21479188      5.12822939
  H      8.35204595      3.93672938      4.74924211
  H      8.31783811      2.71664457      3.44273781
  N      3.68412115      2.34623114      0.41647706
  C      4.14829389      3.07004001      1.43008087
  N      4.47570337      4.27792050      0.98931405
  C      4.22409133      4.32695390     -0.34930240
  C      3.72473206      3.11759166     -0.70997986
  C      3.19566734      0.99808344      0.53392462
  C      1.73269763      0.99878972      0.96837713
  C      4.99925617      5.31284343      1.82763282
  H      4.20882426      2.75286235      2.44604539
  H      4.41598761      5.20244075     -0.93537997
  H      3.40695118      2.75041753     -1.66418167
  H      3.32503513      0.49643709     -0.42929040
  H      3.82102387      0.49428141      1.27455561
  H      1.43260294      0.00987138      1.30297831
  H      1.08927084      1.30322520      0.14596035
  H      1.60081666      1.71015818      1.78165508
  H      4.29225243      5.48017280      2.64331782
  H      5.13157691      6.22540184      1.25034185
  H      5.95627132      4.98411933      2.23646644
  N      4.72085066      1.98646277      9.94912610
  C      4.35395793      2.29901994     11.18987508
  N      5.42056613      2.23532668     11.97981367
  C      6.49667227      1.87091354     11.22138806
  C      6.05554676      1.71905508      9.94427278
  C      3.87222543      1.98004626      8.78119602
  C      3.44130656      3.39982395      8.43007479
  C      5.40020548      2.51027978     13.38855987
  H      3.37323542      2.57493801     11.57916702
  H      7.47576360      1.74926406     11.63634599
  H      6.55161820      1.41343873      9.03843729
  H      4.45305479      1.53100787      7.96892102
  H      2.99378188      1.36456487      8.99179854
  H      2.76752631      3.38488656      7.57894537
  H      4.30732899      4.00442996      8.17162559
  H      2.92630111      3.85690551      9.27210330
  H      6.08132678      3.32814440     13.62367315
  H      5.69515480      1.62502256     13.95206097
  H      4.37238686      2.79365549     13.65067979
 Cl      2.20094776      3.20296256     13.21445212
 Cl      6.43547932      0.55182434      6.94696647
 Cl      6.60140909      2.05745721      1.61423496
 Cl     30.50152948     29.81671236     20.10706966
 Cl      1.99659877      3.97959811      2.87979162
