62
Energy =    -96.26387487 au
  N      8.32131863      2.92305935      2.54543324
  C      9.29911140      2.99134911      3.44547058
  N      9.10672064      2.05626142      4.37287022
  C      8.01848287      1.32027156      4.01199516
  C      7.52686988      1.85857636      2.86734990
  C      8.21510321      3.71934141      1.34702620
  C      8.89294858      3.00304324      0.18393515
  C     10.00664375      1.82217979      5.46155131
  H     10.02936787      3.76999867      3.50766682
  H      7.68432547      0.48055284      4.58674536
  H      6.67839928      1.59149591      2.27335346
  H      7.15956634      3.90553280      1.12437820
  H      8.70967403      4.67484889      1.53633293
  H      8.92132588      3.65632999     -0.68351817
  H      8.34495032      2.09925364     -0.07504700
  H      9.90585105      2.72603765      0.46943395
  H     11.00951056      1.70392749      5.04234363
  H      9.71481441      0.92065160      5.99633484
  H      9.98923880      2.67699660      6.13975372
  N      5.12231908      5.37331568      2.91142568
  C      4.05976814      5.37088394      2.09653574
  N      3.45838734      4.18471800      2.18388728
  C      4.23645845      3.36513307      2.95877389
  C      5.27494255      4.10729712      3.41208134
  C      6.10040146      6.42360440      3.03197234
  C      5.45044258      7.77203140      3.31578164
  C      2.27152510      3.76354665      1.49765161
  H      3.63892100      6.23910529      1.63410259
  H      3.93526088      2.35333527      3.13905364
  H      6.10109017      3.87463733      4.05377254
  H      6.77971379      6.13490590      3.83729486
  H      6.65439269      6.47434253      2.08873633
  H      6.21284825      8.49338437      3.59604310
  H      4.73324326      7.69053818      4.13009462
  H      4.93679612      8.14308768      2.43332110
  H      1.55253516      4.58339297      1.46222025
  H      1.84555481      2.92354286      2.04901508
  H      2.51680402      3.46229234      0.47645914
  N      4.07751812      2.80768160      6.06064416
  C      5.00134493      3.65891153      6.50845022
  N      4.46607607      4.88097988      6.56687535
  C      3.16860636      4.79518268      6.15273469
  C      2.92599083      3.49390618      5.83793287
  C      4.24634792      1.39380838      5.84071611
  C      4.16895182      0.62601648      7.15579038
  C      5.18866080      6.05729471      6.95315896
  H      6.04894184      3.46885067      6.66160680
  H      2.52445854      5.64934911      6.11047854
  H      2.07502580      2.99130815      5.40163842
  H      3.43378573      1.07958876      5.17221543
  H      5.21230387      1.23191092      5.35925649
  H      4.27317524     -0.43734774      6.96100055
  H      3.20596960      0.79309766      7.63293980
  H      4.95807194      0.93711094      7.83785468
  H      4.75363838      6.93392505      6.47845632
  H      6.22640904      5.92795091      6.62661903
  H      5.16660990      6.19025832      8.03702737
 Cl      7.82318922      4.59883885      5.66090311
 Cl     11.37622356      1.81847649      2.43776450
 Cl      5.28490438      5.19862678     -0.06458932
 Cl      1.54122701      1.39160035      3.89919405
 Cl     12.58085436     23.00914323     36.48774432
