62
Energy =    -96.25630825 au
  N      9.55404923     -1.06688310      1.77954020
  C      9.09133740      0.02084312      2.38530525
  N      9.28021325      1.06947050      1.59310350
  C      9.88648182      0.63414477      0.44903085
  C     10.05485399     -0.71105426      0.56591951
  C      9.50682358     -2.42142769      2.27610429
  C      8.06671982     -2.91644851      2.33976597
  C      8.90721242      2.41684533      1.92396755
  H      8.60014941      0.10066297      3.34749357
  H     10.14419681      1.29852638     -0.34935431
  H     10.50505368     -1.46367758     -0.06884335
  H     10.09975592     -3.03127705      1.57962549
  H      9.95818376     -2.44781675      3.27152994
  H      8.04643270     -3.92119242      2.75074362
  H      7.63779708     -2.94387048      1.34147131
  H      7.46159308     -2.26640684      2.96854071
  H      8.30697012      2.85058112      1.12533283
  H      9.79454140      3.03079206      2.07754670
  H      8.32238815      2.38414044      2.84837293
  N      5.74001787      6.39029672      6.66998978
  C      5.74045471      5.37824115      7.53226848
  N      6.24949763      4.30912261      6.92733050
  C      6.58068454      4.64725284      5.64810004
  C      6.25820811      5.95914408      5.48624366
  C      5.27397390      7.73084154      6.93356982
  C      5.93508839      8.30419106      8.17944135
  C      6.45420283      3.01939222      7.52385714
  H      5.39239188      5.42840370      8.56901074
  H      6.99428345      3.92467450      4.97235320
  H      6.35041900      6.62783691      4.64962102
  H      5.49864031      8.32685329      6.04324331
  H      4.19019914      7.70186350      7.08026185
  H      5.58196453      9.31911759      8.34286275
  H      7.01627045      8.32790698      8.05980969
  H      5.68472645      7.70268291      9.05222390
  H      7.32567918      3.04295308      8.18023194
  H      6.62600698      2.28764322      6.73323111
  H      5.58404446      2.74164710      8.11611395
  N      4.43590392     11.34327734      5.03031023
  C      4.13914326     10.86566716      3.82728128
  N      3.17213460      9.96491944      3.93983888
  C      2.82556834      9.87456947      5.25289025
  C      3.61241865     10.74189611      5.93826069
  C      5.39413173     12.38025112      5.30448032
  C      4.70532726     13.74211430      5.31677884
  C      2.63149279      9.23139705      2.83613463
  H      4.62062088     11.13745499      2.91233387
  H      2.05969713      9.21083087      5.59778344
  H      3.65730093     10.96376268      6.98444439
  H      5.87427030     12.16325208      6.26343417
  H      6.15067831     12.34191139      4.51844306
  H      5.43840091     14.54411252      5.28102642
  H      4.09665121     13.85718219      6.21065177
  H      4.05133781     13.80944983      4.44734290
  H      1.82562597      8.58782300      3.18159486
  H      3.42619007      8.62742174      2.39311258
  H      2.25306520      9.94299170      2.09935845
 Cl      6.05717378      8.88454637      3.79410198
 Cl     11.29185061     -3.51158087     -0.31907106
 Cl      4.81904712      5.80220913     10.51784215
 Cl      7.33584425      1.31963789      4.65506402
 Cl      2.45531391     12.76225633      2.87560718
