62
Energy =    -96.29227959 au
  N      4.55815590      3.67480381      4.36749570
  C      4.54811741      3.49036736      3.05310911
  N      5.32195074      2.45091358      2.75890492
  C      5.83068542      1.95233285      3.92055199
  C      5.34719786      2.72218347      4.93303403
  C      3.85900998      4.72320727      5.06455238
  C      2.48962190      4.24438359      5.53420465
  C      5.61973043      1.95646072      1.44649845
  H      4.10400072      4.18651195      2.35406429
  H      6.52509333      1.13789030      3.91940399
  H      5.54850817      2.71800530      5.98544630
  H      4.47519833      5.01027127      5.92230229
  H      3.75378557      5.55966808      4.37064996
  H      1.98781905      5.04841793      6.06436062
  H      2.59360790      3.39753285      6.20946069
  H      1.87425377      3.94925264      4.68612139
  H      5.05777892      1.04266028      1.24391041
  H      6.69104218      1.72893095      1.40045219
  H      5.35866705      2.71210846      0.70964736
  N     10.18586899      4.99718471      6.17198461
  C     10.96373962      4.96162592      5.09258708
  N     10.65429987      3.88996295      4.37182389
  C      9.62407845      3.24292441      4.98568910
  C      9.32684503      3.93628611      6.11517096
  C     10.15387690      6.05238774      7.15348436
  C      9.06404931      7.05598852      6.79797883
  C     11.22610070      3.54827055      3.10311298
  H     11.74021228      5.66079422      4.86343161
  H      9.17806361      2.37198359      4.54768209
  H      8.54396754      3.80487385      6.83695630
  H      9.95673161      5.60673107      8.13221559
  H     11.13541331      6.53458938      7.16397742
  H      9.12568231      7.92753088      7.44380137
  H      8.09141997      6.58774068      6.92102463
  H      9.18918217      7.36091077      5.76190638
  H     11.24117996      4.44498481      2.48425103
  H     10.60182792      2.78516536      2.63725804
  H     12.24299099      3.16997429      3.22365309
  N      7.44974322      5.53256125      1.88263916
  C      6.97286305      6.65214345      2.40743695
  N      6.80219054      6.48683903      3.71025597
  C      7.18311957      5.22199831      4.03200474
  C      7.59141808      4.61909447      2.88498377
  C      7.73809012      5.30574591      0.49019569
  C      9.15858481      4.78827754      0.30855199
  C      6.24021476      7.44301913      4.61844970
  H      6.76985438      7.55310251      1.86581606
  H      7.12382402      4.86772651      5.04301328
  H      7.97429834      3.63214938      2.70793091
  H      7.01195540      4.58672259      0.09686837
  H      7.60006527      6.25470686     -0.03316591
  H      9.42183086      4.77907822     -0.74579307
  H      9.24951377      3.77974885      0.70166963
  H      9.84473216      5.44071683      0.84251213
  H      6.89977663      8.30588514      4.71736774
  H      6.11601810      6.96598738      5.58862414
  H      5.27100338      7.76799724      4.23742636
 Cl      6.33297119      4.79059799      7.35542102
 Cl    -35.45544400     31.78259285     32.54073631
 Cl      8.74830769      1.36202112      2.25592460
 Cl     10.08046372      6.83515947      3.31035382
 Cl      4.22267112      6.28822829      1.77829489
