62
Energy =    -96.25762691 au
  N     10.98480608      2.38181060      6.63012713
  C     12.00474819      2.76931330      5.86382104
  N     12.14392939      4.08885824      5.97448184
  C     11.18349030      4.55251586      6.82917804
  C     10.45977257      3.47823924      7.24253508
  C     10.53388289      1.02543780      6.82844596
  C     11.59707984      0.20750423      7.55230739
  C     13.15212474      4.85020654      5.29342666
  H     12.69184788      2.17247965      5.26349180
  H     11.08790593      5.58925846      7.07779413
  H      9.61453938      3.38604182      7.90256292
  H      9.61344293      1.07336630      7.41763156
  H     10.32080842      0.57980589      5.85325185
  H     11.24839954     -0.81332880      7.67810241
  H     11.79078816      0.62964099      8.53548144
  H     12.52321346      0.19701316      6.98226643
  H     13.71128601      5.45739990      6.00476006
  H     12.69947655      5.50124137      4.54459931
  H     13.82376968      4.13418279      4.80255517
  N      6.84302291      5.02368606      7.66249673
  C      6.72173091      4.65914020      8.93482425
  N      7.65275937      5.27358873      9.65476791
  C      8.37172376      6.08020904      8.82373367
  C      7.86440857      5.92635012      7.57420764
  C      5.97544533      4.59166535      6.59855011
  C      4.76615803      5.51551161      6.49851807
  C      7.78056430      5.13690130     11.07409057
  H      6.01303053      3.95480824      9.30744372
  H      9.17378259      6.69331238      9.18024521
  H      8.14774223      6.37525752      6.64479281
  H      6.54832051      4.57991320      5.66709020
  H      5.65770031      3.57370619      6.83256851
  H      4.01031250      5.08152435      5.85077165
  H      5.05432198      6.48677501      6.10301108
  H      4.35190997      5.66147759      7.49401370
  H      6.83192592      5.43140844     11.52938159
  H      8.58221697      5.77600902     11.43702306
  H      7.99407914      4.09516019     11.31769605
  N      2.46568946      3.46239827      9.42785577
  C      3.15859835      3.33029807     10.56110389
  N      4.26394212      2.62664923     10.30917012
  C      4.21683179      2.20702448      9.00663915
  C      3.10011072      2.73769455      8.45453117
  C      1.22285242      4.17335625      9.29502778
  C      1.44322847      5.55510923      8.68637049
  C      5.22340728      2.20561429     11.28750972
  H      2.99369561      3.90621857     11.44698489
  H      4.99096766      1.59403652      8.59049100
  H      2.70525778      2.65662525      7.46289957
  H      0.54515377      3.57696191      8.67660733
  H      0.79336108      4.25427720     10.29513255
  H      0.54422501      6.15771726      8.78196423
  H      1.70256171      5.47586059      7.63282810
  H      2.26115260      6.05213715      9.20276871
  H      5.43353268      3.03130261     11.96630043
  H      6.13826425      1.89564633     10.78301009
  H      4.81153112      1.37247095     11.86177532
 Cl     -2.11415195     24.95337307    -12.75569500
 Cl      7.89626984      2.17725650      8.78982570
 Cl      1.76971979      1.64338934     11.72080868
 Cl     14.51063541      2.04738676      4.22355000
 Cl      4.69925606      6.05109145      9.97553305
