62
Energy =    -95.93040652 au
  N      1.25102735      5.42457614      1.85837445
  C      0.05509707      4.82423853      1.83646878
  N     -0.51918558      5.08272358      0.65736310
  C      0.33572851      5.83724499     -0.09703067
  C      1.45578760      6.05270458      0.66079955
  C      2.22447756      5.33847827      2.95309276
  C      3.50695644      4.66707727      2.49873311
  C     -1.75982620      4.48813928      0.17335636
  H     -0.34806216      4.18311416      2.59938000
  H      0.10007330      6.13478017     -1.10227428
  H      2.36926585      6.56768374      0.42778073
  H      2.40482594      6.35198951      3.31025689
  H      1.74320336      4.77428696      3.74857289
  H      4.19580603      4.61734210      3.34087970
  H      3.98302577      5.22175560      1.69289006
  H      3.30780438      3.66141696      2.14186365
  H     -1.51258606      3.72329139     -0.55783697
  H     -2.37288075      5.26779384     -0.27052126
  H     -2.27365629      4.02444496      1.00773064
  N      4.02272210      1.11092292     -0.12942098
  C      3.80575822      0.60899155      1.09210508
  N      2.52336699      0.23955570      1.16888510
  C      1.91821684      0.48374587     -0.03255366
  C      2.86563753      1.03329672     -0.85453282
  C      5.31784326      1.57692388     -0.63827325
  C      5.77995057      0.74104960     -1.81714775
  C      1.91993658     -0.49298130      2.27624386
  H      4.54546061      0.45714946      1.85721664
  H      0.89055954      0.22977229     -0.21692602
  H      2.80748248      1.33733939     -1.88318236
  H      5.20420299      2.62643556     -0.90828790
  H      6.01661783      1.50945181      0.19232107
  H      6.74469876      1.11495510     -2.15722692
  H      5.07528942      0.79515631     -2.64432259
  H      5.88269407     -0.30117675     -1.53152905
  H      1.79300139     -1.52922994      1.97484728
  H      0.96347014     -0.03773586      2.51841738
  H      2.59007633     -0.45355631      3.12746216
  N      0.64259649      0.52048347      8.73888874
  C      0.39805377      0.83542198      7.46133367
  N      0.00206592     -0.27292482      6.82756220
  C     -0.03375068     -1.30682823      7.72145903
  C      0.36962870     -0.80595834      8.93045708
  C      1.04340674      1.46799364      9.78531216
  C     -0.00076637      1.55114084     10.88292918
  C     -0.50698535     -0.32928828      5.46203222
  H      0.43852645      1.81951201      7.03059000
  H     -0.36120925     -2.29170906      7.44332975
  H      0.45005250     -1.27895918      9.89157415
  H      2.00823271      1.13981871     10.17094004
  H      1.17834956      2.42898166      9.29437655
  H      0.33209017      2.26836055     11.63192895
  H     -0.14829153      0.58757540     11.36611759
  H     -0.95565382      1.87425804     10.48024412
  H     -1.58750161     -0.43733067      5.50172006
  H     -0.04964421     -1.17245408      4.95150800
  H     -0.26441889      0.60053370      4.96022865
 Cl      5.36101809      0.37253984      7.16199717
 Cl      9.09971441      5.96177156      9.05051276
 Cl      1.29551753      3.77541627      0.02710686
 Cl      2.35904576      0.91118856      7.07562673
 Cl      0.03485593      9.00875075      8.07497984
