62
Energy =    -96.26497564 au
  N     11.34373538      9.11142458      8.91523471
  C     11.31448199      8.97009155      7.59456522
  N     10.14044193      9.39182675      7.13583568
  C      9.42734957      9.88936567      8.18743353
  C     10.18001382      9.70867854      9.30195778
  C     12.43877025      8.75843110      9.77643004
  C     13.30557481      9.98072831     10.06023760
  C      9.74626902      9.46470158      5.76058064
  H     12.05733676      8.46299594      7.01648492
  H      8.44680725     10.30033508      8.05248264
  H      9.97685123      9.94161986     10.32695476
  H     12.02634884      8.32878174     10.69357331
  H     13.02061020      7.98812607      9.26797193
  H     14.22674103      9.68662349     10.55598544
  H     12.77532592     10.69218924     10.68952373
  H     13.54050408     10.46647470      9.11465072
  H     10.18077131     10.36031170      5.31101382
  H      8.65811408      9.50507748      5.70690036
  H     10.11342923      8.58975966      5.22648905
  N      3.62222288      7.61138180      7.04812687
  C      3.22333007      7.41239701      8.30091909
  N      2.76602715      8.56018558      8.79557078
  C      2.88077512      9.51794629      7.82888397
  C      3.42204897      8.92022659      6.73421602
  C      4.20744668      6.63177237      6.17242833
  C      3.23446435      6.22253910      5.07236074
  C      2.24493090      8.72328996     10.12277841
  H      3.29194789      6.50759193      8.89866303
  H      2.59388505     10.53620341      7.99137983
  H      3.71342027      9.33189320      5.79131060
  H      5.11178342      7.08663069      5.75412735
  H      4.48334742      5.76966559      6.78152205
  H      3.70495826      5.48890379      4.42412323
  H      2.94945034      7.08153800      4.46970837
  H      2.33667656      5.78209986      5.50192553
  H      2.38381222      7.77523692     10.65172298
  H      1.18333302      8.97235544     10.08615846
  H      2.78151141      9.51544788     10.64377937
  N      7.01692232      6.63968014      9.49516333
  C      7.69105407      6.93867566      8.38949112
  N      7.46881067      5.99894663      7.47911272
  C      6.66456545      5.04658841      8.03930328
  C      6.37335921      5.45106451      9.30180988
  C      6.98457460      7.43677274     10.69198878
  C      5.69979929      8.25474851     10.74238627
  C      8.08586446      5.99012956      6.18734209
  H      8.21520215      7.85301977      8.21086178
  H      6.38090208      4.15877949      7.51150355
  H      5.72938179      5.02693846     10.04613835
  H      7.03944235      6.76811005     11.55446049
  H      7.86847352      8.07792769     10.67954544
  H      5.70810532      8.91347673     11.60660355
  H      4.84936453      7.58025716     10.81614670
  H      5.61169744      8.85225548      9.83762149
  H      7.73571955      5.13462256      5.61387110
  H      9.16818968      5.93534423      6.32427882
  H      7.83276746      6.92045944      5.67586645
 Cl      3.23130552      5.59784142     10.83198551
 Cl    -19.08758790      4.83265624    -13.23943827
 Cl     10.15005816      6.28615775      8.94503850
 Cl      6.36795160      8.99781897      6.55602894
 Cl     12.73706470     11.00107313      6.79857290
