62
Energy =    -96.26943306 au
  N      0.99800389      2.42277511      3.01608753
  C      0.19340287      2.77687020      4.01049214
  N      0.93157904      3.28571118      4.99291219
  C      2.23974697      3.25783370      4.61003776
  C      2.28405642      2.71360850      3.36438344
  C      0.55641272      1.84691672      1.76910850
  C      0.97088586      2.72297464      0.59358391
  C      0.46309038      3.78567783      6.25471972
  H     -0.88397719      2.62757973      3.98260421
  H      3.00146716      3.63373258      5.26657656
  H      3.10896007      2.53121630      2.69803575
  H      1.00879721      0.85624315      1.66433138
  H     -0.53137364      1.74505327      1.83454111
  H      0.59557227      2.29308442     -0.33118543
  H      2.05502808      2.78949659      0.53195191
  H      0.56069465      3.72412919      0.70466925
  H      1.32360707      4.17083111      6.80844389
  H     -0.01202306      2.98628624      6.82444136
  H     -0.26343628      4.58321210      6.09862716
  N      7.85776783      3.34944872      1.25497232
  C      8.42707900      3.79377587      2.37189780
  N      8.18960102      5.09624372      2.48248621
  C      7.45170406      5.50103296      1.41405364
  C      7.24498576      4.40071545      0.64104120
  C      7.93627948      2.00387627      0.73579296
  C      7.64115116      0.95078808      1.79327232
  C      8.65057270      5.95073375      3.53950404
  H      8.93129305      3.19229398      3.12716314
  H      7.13349352      6.52448989      1.32554396
  H      6.67879135      4.28039293     -0.25835388
  H      7.19438823      1.92694500     -0.06131286
  H      8.93862338      1.85581265      0.31455634
  H      7.85073672     -0.03597970      1.38756067
  H      6.58731834      1.00316748      2.04797365
  H      8.23823691      1.09878985      2.68827192
  H      8.48314211      5.47125908      4.50226712
  H      8.11619421      6.90371572      3.46597964
  H      9.72051265      6.13561881      3.42884062
  N      5.54496822      5.94449393      5.16921823
  C      5.82157006      4.71863031      5.60654145
  N      5.67768609      3.85354286      4.61088067
  C      5.28824202      4.54296522      3.50337111
  C      5.20357141      5.85563860      3.85401828
  C      5.51092714      7.10644856      6.02757745
  C      5.05162451      8.35700166      5.30111488
  C      5.90807434      2.43897162      4.67987551
  H      6.11221121      4.46623927      6.60548763
  H      5.08399729      4.04740312      2.57093531
  H      4.98225793      6.71384429      3.25573162
  H      4.82874748      6.85890576      6.85009536
  H      6.51477705      7.25825269      6.43859536
  H      5.08641862      9.20075446      5.98609870
  H      4.02941792      8.24032713      4.94968446
  H      5.70029478      8.57201760      4.45301213
  H      5.52012813      1.98464693      3.77194695
  H      5.39758889      2.02490128      5.54845852
  H      6.98218468      2.23331305      4.76378098
 Cl      3.56263069      4.68499328      7.36587920
 Cl     -2.70569226      1.87444580      3.16854116
 Cl      9.37487844      2.09778441      4.84780913
 Cl      7.02806509      8.63397034      2.43966670
 Cl      4.62980360      2.43041534      0.95507797
