62
Energy =    -96.26438029 au
  N      5.78752995      3.66557052      6.30367810
  C      5.20574940      3.45454014      5.12477649
  N      4.12356511      4.21799930      5.03034834
  C      4.04010869      4.98433994      6.15600477
  C      5.08351924      4.63989181      6.95497980
  C      7.02243338      3.07649788      6.76389719
  C      8.18699164      4.00352911      6.43696569
  C      3.28478225      4.35132877      3.87597247
  H      5.52506766      2.74416201      4.39098343
  H      3.25122095      5.70216666      6.27293071
  H      5.42225171      5.05382750      7.88273482
  H      6.94621705      2.92435792      7.84450794
  H      7.14027701      2.10800440      6.26889412
  H      9.12823970      3.56001437      6.75024304
  H      8.04164862      4.95136122      6.95155044
  H      8.20710033      4.18928322      5.36666020
  H      3.90420798      4.68151597      3.03987326
  H      2.52510769      5.10373488      4.09578402
  H      2.81358045      3.40348847      3.62358807
  N      0.92962922      7.14624190      1.33765442
  C      0.97370879      7.14569917      0.00672596
  N      2.23628427      6.99773858     -0.37878388
  C      3.02253848      6.90653981      0.73657815
  C      2.19805919      7.00319921      1.81465689
  C     -0.26147930      7.21512146      2.15020723
  C     -1.16173343      6.01511797      1.88123558
  C      2.64838653      6.95153373     -1.75445517
  H      0.15635783      7.21282429     -0.71288390
  H      4.08424356      6.77476598      0.69364896
  H      2.39153691      7.00733510      2.87343484
  H      0.06245999      7.23198264      3.19520495
  H     -0.79696576      8.13970049      1.91804819
  H     -2.04743165      6.07660734      2.50795221
  H     -0.63682260      5.09211478      2.11497857
  H     -1.46803666      5.99378980      0.83789793
  H      3.24895751      6.06218713     -1.94095831
  H      3.23245105      7.83645960     -2.00628458
  H      1.73893931      6.92705404     -2.36543247
  N      7.70133378      8.09977489      4.96600948
  C      6.52144720      7.61333309      5.33925728
  N      5.75374210      8.61043932      5.77130481
  C      6.49482982      9.75479379      5.74481949
  C      7.71478350      9.43571320      5.23985035
  C      8.82324764      7.31490555      4.51405764
  C      9.81735259      7.12915806      5.65375485
  C      4.45464543      8.46639070      6.35374290
  H      6.22278536      6.59226904      5.20015745
  H      6.11134294     10.69455054      6.09063282
  H      8.57036465     10.04923799      5.05759557
  H      8.42405346      6.35519698      4.17928587
  H      9.28556865      7.82365328      3.66314042
  H     10.49638660      6.31156003      5.43479994
  H      9.26737666      6.90084644      6.56256416
  H     10.39636726      8.03527872      5.82228483
  H      4.06688739      9.44700871      6.61961208
  H      4.54457982      7.85707040      7.25343839
  H      3.75383533      7.99042703      5.66718670
 Cl      7.13345575      6.98419209      7.91930160
 Cl     40.24916843     -0.49975316     17.77948306
 Cl     -0.55365832      7.03817264     -2.67617023
 Cl      1.60084087      7.06509273      5.05487161
 Cl      6.60769824      4.94910575      3.32542119
