62
Energy =    -96.27144109 au
  N      6.74684408      1.96900556      6.84832771
  C      6.62101522      1.60992334      8.12351069
  N      7.82002892      1.30891863      8.61025202
  C      8.73324496      1.44076163      7.60054188
  C      8.05661882      1.85739307      6.50074593
  C      5.64945464      2.26745843      5.96856833
  C      5.10422507      3.66017230      6.25140857
  C      8.06768693      0.80552046      9.93001757
  H      5.73713577      1.67184882      8.72405636
  H      9.77466834      1.23874967      7.74157538
  H      8.40789093      2.11417144      5.52336832
  H      6.01874177      2.21528623      4.94288137
  H      4.90240323      1.48138885      6.12330299
  H      4.26568431      3.88152945      5.59556785
  H      5.90087709      4.37962345      6.07343702
  H      4.78898393      3.73823444      7.28923721
  H      7.27697478      1.16101581     10.59222895
  H      9.03958043      1.14737206     10.28344953
  H      8.04242123     -0.28602922      9.92161406
  N      6.08407235      6.02623390      9.01256258
  C      5.49863746      6.15514725     10.20101912
  N      6.11445020      5.36812091     11.07064892
  C      7.11380100      4.70876585     10.42311287
  C      7.09753220      5.12398537      9.12758163
  C      5.77335412      6.76911765      7.81511273
  C      5.91229447      8.26771800      8.05615482
  C      5.75823181      5.23136660     12.45179636
  H      4.62754152      6.74553182     10.45401470
  H      7.73228387      3.99085985     10.91880892
  H      7.70231863      4.87224150      8.27068387
  H      6.47757648      6.43480587      7.04467400
  H      4.75142607      6.53480215      7.50458014
  H      5.69768264      8.80358455      7.13600794
  H      6.92782491      8.50566880      8.36375680
  H      5.22134205      8.60350131      8.82635951
  H      6.57695623      5.56595635     13.08950046
  H      5.55444555      4.17786154     12.64652963
  H      4.86940373      5.83278464     12.63555058
  N      2.68367151      2.26649801      9.34380578
  C      2.69674589      2.23585270     10.67437789
  N      2.51993508      3.46847696     11.14407685
  C      2.44565791      4.32392302     10.08862029
  C      2.54000878      3.57245430      8.96130814
  C      2.78242293      1.13309613      8.45597320
  C      1.58451187      0.20243056      8.60031835
  C      2.48881375      3.85887097     12.52286359
  H      2.78859194      1.35007288     11.26863250
  H      2.36760570      5.38421982     10.25248214
  H      2.51440953      3.85947219      7.93097107
  H      2.83174970      1.51722857      7.43612522
  H      3.70607745      0.56838266      8.64158233
  H      1.71530479     -0.63319185      7.92008466
  H      0.65459326      0.71673660      8.35997803
  H      1.51900469     -0.18936563      9.61208481
  H      3.31940619      3.38717895     13.04519955
  H      1.54876777      3.55402805     12.98593687
  H      2.58437471      4.94583147     12.56586229
 Cl      8.21046353      5.09319855      6.08976152
 Cl    -21.18047724      3.59944658    -21.97447379
 Cl      5.29281609      2.19473149     11.28816096
 Cl      5.40782288     -0.67513189      7.56014877
 Cl      2.87300309      7.16511911     11.74214337
