62
Energy =    -96.29351206 au
  N      4.80291066      4.84536232      3.84597395
  C      4.94639984      4.65565123      2.54012206
  N      5.23070589      3.37619567      2.32022775
  C      5.25753947      2.73035704      3.51989357
  C      4.98525685      3.65590343      4.47946282
  C      4.52620822      6.11339818      4.47070534
  C      3.02371574      6.33154739      4.61069878
  C      5.51867353      2.77420076      1.05093148
  H      4.97833848      5.46303124      1.82225803
  H      5.51971827      1.69497880      3.58897668
  H      4.97319891      3.58391653      5.54862381
  H      5.00607083      6.10593636      5.45333967
  H      4.96616713      6.88717705      3.83699015
  H      2.83941668      7.28818918      5.09034776
  H      2.57843208      5.54720286      5.21982189
  H      2.54630326      6.33568450      3.63254451
  H      4.66154443      2.20016339      0.69385341
  H      6.37031433      2.09621786      1.17812730
  H      5.75933676      3.55169783      0.33010061
  N     10.21200272      3.88263873      6.36517261
  C     11.02693183      3.35745412      5.45279011
  N     10.38817962      2.39259085      4.79973150
  C      9.12253978      2.30710763      5.30006945
  C      9.00930214      3.24240024      6.27916278
  C     10.53013428      5.07362771      7.11805427
  C      9.61034653      5.28829187      8.30512978
  C     10.90749770      1.60761695      3.71730986
  H     12.04466662      3.64595748      5.29551497
  H      8.40393859      1.63087120      4.88351439
  H      8.15993033      3.51887604      6.87265838
  H     11.57229764      4.99051634      7.44459718
  H     10.47140598      5.91256766      6.41504381
  H      9.90883642      6.19087712      8.83181116
  H      9.66799928      4.44818154      8.99485041
  H      8.57800643      5.40742745      7.98543291
  H     10.06488524      1.24930985      3.12076808
  H     11.47196996      0.75193881      4.09462826
  H     11.55482234      2.22731233      3.10059194
  N      8.61049943      5.27142755      2.09937718
  C      8.61860192      6.47345730      2.65641555
  N      8.14275660      6.38678274      3.88920912
  C      7.82000696      5.08885277      4.12936417
  C      8.11610390      4.38315559      3.00772003
  C      9.05094300      4.94500530      0.76858846
  C     10.11252337      3.85375474      0.81360077
  C      7.97432643      7.45789963      4.82658986
  H      8.96798818      7.37097960      2.18895543
  H      7.39819095      4.79525637      5.07035715
  H      8.03567368      3.33315243      2.79983315
  H      8.18443840      4.62066974      0.18329846
  H      9.44987588      5.85717002      0.31985269
  H     10.55491747      3.71920100     -0.16988417
  H      9.67634156      2.91218021      1.13498195
  H     10.88660039      4.14640486      1.51882545
  H      8.94407250      7.89091848      5.07639797
  H      7.50785122      7.05507680      5.72493554
  H      7.33652239      8.22773566      4.39057903
 Cl      6.28536561      5.09810110      7.20727488
 Cl    -52.57571838     40.80665699     45.41256335
 Cl      7.89925023      0.92934118      2.36399832
 Cl     11.25816064      5.56697631      3.87698959
 Cl      6.12712141      7.31285235      1.52705599
