62
Energy =    -96.24940774 au
  N      7.65012948      0.88857013     14.35234381
  C      8.61590589      1.32802046     13.55324805
  N      8.11189799      1.52437334     12.34060780
  C      6.78473850      1.19838421     12.36989772
  C      6.49508389      0.80111908     13.63858381
  C      7.76353841      0.60006228     15.76157059
  C      8.00892131      1.88351094     16.54580100
  C      8.87075326      2.00211333     11.21900064
  H      9.66194831      1.52779106     13.77832536
  H      6.15884320      1.27335413     11.50470501
  H      5.59483651      0.43809444     14.11755314
  H      6.81613853      0.13318109     16.06495064
  H      8.59146513     -0.09689603     15.91242129
  H      8.10255920      1.65170799     17.60256290
  H      7.17045647      2.56315484     16.41617973
  H      8.92026909      2.37314052     16.20823113
  H      8.42836917      2.91727526     10.82569460
  H      8.89675564      1.25052644     10.42954416
  H      9.88892215      2.20267205     11.57292834
  N      2.51258391     11.55482702      2.38182071
  C      2.35744744     12.86793268      2.51405139
  N      3.53873393     13.45631729      2.37541469
  C      4.47593677     12.48978010      2.14703106
  C      3.83137813     11.29276000      2.15052780
  C      1.46443714     10.56516819      2.45929286
  C      1.36161231      9.77788687      1.15876595
  C      3.74659526     14.87472336      2.45665125
  H      1.44724310     13.45055574      2.68123350
  H      5.51268221     12.71445733      2.00328499
  H      4.19685041     10.29299641      1.97513898
  H      1.69334424      9.87871766      3.27985018
  H      0.53351546     11.09253017      2.67991919
  H      0.53331073      9.07835370      1.22180627
  H      2.27925990      9.21570436      0.99217712
  H      1.19062251     10.45062330      0.32147026
  H      4.20883545     15.24112701      1.53983771
  H      4.38938014     15.11591811      3.30350378
  H      2.76201171     15.34105573      2.59091462
  N      3.56328202      5.55651599     -2.13461777
  C      3.71079312      6.69149486     -1.46117168
  N      3.67757355      7.70865853     -2.31494038
  C      3.49482417      7.19989379     -3.57045510
  C      3.42364624      5.84613501     -3.45890784
  C      3.52627314      4.22577479     -1.57729235
  C      2.17568694      3.57093222     -1.83791383
  C      3.81047122      9.09176142     -1.95053504
  H      3.86859811      6.82242013     -0.40057451
  H      3.43326589      7.82516471     -4.43670092
  H      3.26409843      5.05637260     -4.19681788
  H      4.30435049      3.63010733     -2.06114837
  H      3.73777021      4.30733918     -0.50805888
  H      2.13497695      2.60847334     -1.33718345
  H      2.05757551      3.41055294     -2.91003297
  H      1.36549860      4.19575535     -1.46921735
  H      2.85839554      9.60919895     -2.07673480
  H      4.56273861      9.57272360     -2.57523770
  H      4.11442415      9.13592992     -0.89965252
 Cl      2.79433219      3.31215900     -5.21199730
 Cl      4.52711499      8.25074623      1.19167566
 Cl      4.63133618     -0.51255911     15.87672950
 Cl     11.55962419      2.27093490     13.14872394
 Cl      0.49508324     15.29777398      2.79945172
