62
Energy =    -96.25503862 au
  N      2.82013790      4.73861237      7.00634910
  C      3.09653644      5.64714992      6.06384393
  N      3.80960477      5.05449956      5.09588608
  C      4.09016937      3.77279177      5.50140704
  C      3.46982003      3.57632936      6.68793761
  C      2.12661031      4.98588478      8.24582015
  C      0.69212639      5.44223848      8.00765620
  C      4.39740880      5.75329944      3.99101169
  H      2.60117261      6.58870856      5.95141691
  H      4.69105593      3.11350471      4.91060277
  H      3.41483705      2.72166877      7.33570820
  H      2.14833274      4.05221521      8.81451682
  H      2.67954634      5.75590999      8.79267580
  H      0.20231815      5.60966703      8.96277401
  H      0.13393326      4.68825063      7.45782513
  H      0.66631340      6.37247777      7.44613825
  H      3.62307683      6.15226997      3.33404210
  H      5.03591025      5.07578858      3.42908166
  H      4.99390123      6.58041592      4.38625775
  N      5.91364195      2.10301009      8.92762239
  C      6.66568052      2.50922308      7.90222340
  N      6.54193497      3.83243828      7.77548303
  C      5.77641989      4.28980692      8.81158598
  C      5.38325970      3.21110454      9.53018679
  C      5.79073579      0.75247689      9.41093361
  C      6.76723239      0.50238426     10.55481928
  C      7.26569583      4.65429062      6.85252952
  H      7.10572259      1.85822994      7.17628276
  H      5.55717972      5.33203553      8.91824418
  H      4.74936233      3.13396877     10.38837654
  H      4.75499852      0.60242221      9.72623769
  H      6.00977522      0.07841252      8.57983533
  H      6.77693189     -0.55164997     10.81871806
  H      6.49009974      1.08477598     11.43018281
  H      7.76263514      0.80578263     10.23698277
  H      6.79570240      5.63650437      6.81741612
  H      7.25610275      4.19985610      5.86212332
  H      8.30238321      4.73820598      7.18686007
  N     -1.02865917      1.73604344      7.83347780
  C      0.01919585      2.02475210      7.05816675
  N     -0.42373128      2.35342622      5.84377975
  C     -1.78207043      2.27529130      5.83915344
  C     -2.16390767      1.89186086      7.08604243
  C     -0.95095858      1.40302450      9.23422025
  C     -1.48981363      2.54276002     10.09323697
  C      0.36330023      2.74061967      4.70753037
  H      1.03871614      1.97524628      7.40982192
  H     -2.32595474      2.52412986      4.93648804
  H     -3.13983803      1.71024396      7.48519056
  H     -1.51970171      0.48616652      9.41442284
  H      0.10481005      1.23252493      9.46575627
  H     -1.42472361      2.26983250     11.14311639
  H     -2.52783995      2.76239547      9.85017106
  H     -0.89392410      3.43761171      9.93360152
  H     -0.33785604      2.97829063      3.89388564
  H      1.02296919      1.92770151      4.40675141
  H      0.96667732      3.61590268      4.94598719
 Cl      2.42663366      1.58676440      9.13502527
 Cl      9.04918322      2.38788631      8.72093162
 Cl     -2.28557737      3.29363600      2.88800250
 Cl     24.57503611     23.19260892     -4.71883881
 Cl      4.79940052      7.10486173      7.06827172
