62
Energy =    -96.27183058 au
  N      4.43381405      0.45694667      1.82726502
  C      4.58833828      0.43433205      3.14676953
  N      3.61059686      1.14181841      3.70622788
  C      2.80759360      1.62613927      2.71937843
  C      3.32718632      1.19564010      1.53727592
  C      5.28494859     -0.21874051      0.88034310
  C      4.58401368     -1.43758537      0.29317848
  C      3.39274086      1.36403028      5.10832250
  H      5.43625680     -0.02663047      3.63448844
  H      1.93445175      2.20821422      2.97529897
  H      3.01995519      1.38531904      0.53047792
  H      5.54199060      0.49828327      0.09638602
  H      6.18880674     -0.51713433      1.41883785
  H      5.24008183     -1.92171623     -0.42445873
  H      3.66461823     -1.15166767     -0.21411791
  H      4.34358884     -2.15116211      1.07863365
  H      3.29798347      0.41230712      5.63000234
  H      2.46524405      1.93919222      5.21239912
  H      4.22605041      1.91757072      5.53889460
  N      7.90085171      3.19613656      3.25622855
  C      7.64276381      2.26744017      2.34505055
  N      8.71982681      2.07906878      1.59750933
  C      9.70210470      2.90723780      2.05362434
  C      9.18943605      3.60577955      3.10172488
  C      7.01306424      3.62318921      4.30585551
  C      7.21959324      2.75241155      5.54200831
  C      8.79543275      1.13251121      0.52581947
  H      6.70802346      1.77441440      2.19605739
  H     10.67646477      2.93534806      1.61094033
  H      9.59262101      4.39936479      3.69949226
  H      7.24067761      4.67506406      4.51506319
  H      5.98951819      3.52565697      3.93636002
  H      6.46012765      2.96981420      6.28845979
  H      8.19585408      2.94651667      5.97850285
  H      7.16708354      1.70057394      5.26608290
  H      8.62909250      0.13344025      0.93332434
  H      9.77130802      1.18691017      0.04931857
  H      8.00921398      1.36111752     -0.19544690
  N      4.44189957      5.95938685      2.73616131
  C      5.33193786      5.40534317      1.91542689
  N      6.33949877      6.24987235      1.73000157
  C      6.10396819      7.36948137      2.46159705
  C      4.91042024      7.19166666      3.09057076
  C      3.22304944      5.34651691      3.21341192
  C      3.24348825      5.14216234      4.72069186
  C      7.52996910      5.97665370      0.98241968
  H      5.26025643      4.44185777      1.43061309
  H      6.80153512      8.17820522      2.50841847
  H      4.37816663      7.83412890      3.75995127
  H      2.37325714      5.97809871      2.94156055
  H      3.10936634      4.38631809      2.70877981
  H      2.36571870      4.55322019      4.98495102
  H      3.21121191      6.09021076      5.25025323
  H      4.13811947      4.60507086      5.02368274
  H      8.36745145      5.98579743      1.68682889
  H      7.68611406      6.74603777      0.22644059
  H      7.43002670      5.00226406      0.50791103
 Cl      0.59265869      3.07293213      4.56326787
 Cl     11.76919274     31.98577309     12.72096624
 Cl      5.90997738      2.93737101     -0.04886647
 Cl      7.64232413     -0.39593460      3.42461972
 Cl      8.47887702      6.61842324      4.04161958
