62
Energy =    -96.27557124 au
  N      6.57658745      7.34728141      9.15481237
  C      5.75370617      6.35361703      9.47413191
  N      5.42682372      5.69009549      8.36914512
  C      6.09232539      6.25283922      7.32056059
  C      6.81148317      7.29593104      7.81058658
  C      7.20136297      8.27686792     10.06300099
  C      8.68457708      7.95931102     10.20870450
  C      4.55871588      4.55181021      8.28288137
  H      5.38434318      6.14141487     10.45633569
  H      5.99956883      5.84488283      6.33133849
  H      7.49373185      7.98508347      7.33977263
  H      7.07507070      9.28599701      9.66130407
  H      6.69261177      8.20083159     11.02733296
  H      9.12732749      8.59906708     10.96690211
  H      9.18760791      8.13427855      9.26037091
  H      8.80499826      6.92058158     10.50312308
  H      4.95683458      3.74405057      8.89735189
  H      4.51449769      4.23484917      7.24178118
  H      3.55622786      4.80851905      8.62965298
  N      7.94153413      0.78935825      8.47231595
  C      7.86710468      0.20243383      7.28328122
  N      7.15319403      0.97783167      6.47192978
  C      6.76000053      2.08355294      7.16481835
  C      7.25336595      1.96643826      8.42548788
  C      8.66704180      0.25800063      9.60204180
  C      9.70212062      1.25732420     10.10286465
  C      6.82572303      0.73048482      5.09641826
  H      8.37588363     -0.73926653      7.06623775
  H      6.21386468      2.86655277      6.67441835
  H      7.20341743      2.64834231      9.25512149
  H      7.95522671      0.02964779     10.40051005
  H      9.14477215     -0.66725007      9.25988259
  H     10.21163364      0.84518624     10.96890074
  H      9.23323591      2.19602439     10.38964048
  H     10.44304296      1.44658351      9.32975976
  H      6.40134621      1.64594499      4.68098903
  H      6.09203049     -0.07286449      5.01662575
  H      7.71857874      0.44140453      4.54365166
  N      8.77966428      5.35286113      5.37561297
  C      9.30821166      5.81096584      6.50634583
  N      9.68747459      4.77923382      7.25351687
  C      9.39984621      3.63275478      6.57511711
  C      8.82971644      3.99548625      5.39378886
  C      8.23586854      6.16151060      4.31489747
  C      9.18225133      6.20262220      3.12055514
  C     10.20173772      4.86391480      8.58916665
  H      9.42610407      6.86898241      6.74616673
  H      9.63169279      2.66512695      6.96832142
  H      8.42383256      3.40303387      4.60166670
  H      7.27256669      5.72631598      4.03296129
  H      8.08826642      7.16687040      4.71160468
  H      8.74075169      6.80043488      2.32873314
  H      9.36803093      5.20128629      2.73770135
  H     10.12892185      6.65406440      3.40922463
  H     10.96988567      4.10884423      8.74596365
  H      9.38525961      4.69865591      9.30526856
  H     10.61496828      5.85664463      8.74988510
 Cl    -18.94418342     21.70571828     -7.50103414
 Cl      9.48396474      8.94325594      6.85164949
 Cl      7.48702893      4.48245350     10.56808601
 Cl      5.58852827      4.05063691      4.80980249
 Cl      9.74156559     -2.22959682      7.51599069
