62
Energy =    -96.28452858 au
  N      4.37294854      5.70461917      4.80787844
  C      4.34035432      4.59112108      4.08363159
  N      4.55903002      4.89937744      2.80936312
  C      4.73964643      6.24185168      2.70994287
  C      4.62351911      6.74887827      3.96773374
  C      4.20797380      5.83921560      6.23566214
  C      3.90016572      4.51722716      6.91499721
  C      4.60141066      3.97323076      1.71636556
  H      4.28943057      3.58370050      4.45660890
  H      4.99773831      6.69079139      1.76858929
  H      4.73601475      7.74754781      4.33444046
  H      5.13638811      6.28254355      6.62371550
  H      3.39925884      6.55628124      6.41544176
  H      3.88174425      4.66489526      7.99103518
  H      4.65920815      3.77623572      6.68357484
  H      2.93049377      4.13374358      6.60144891
  H      5.24116579      4.40268916      0.93813262
  H      3.60057618      3.82083542      1.30798569
  H      4.99188681      3.02223359      2.07040408
  N     10.76235483      3.76805661      5.15232424
  C      9.61414002      3.26666628      5.61328771
  N      8.89159611      4.24680444      6.14343488
  C      9.58455310      5.40781382      6.00867204
  C     10.75814358      5.10761489      5.38701235
  C     11.83910907      3.03962574      4.52514185
  C     11.34569233      2.17720167      3.37432333
  C      7.59620351      4.12027255      6.74428435
  H      9.29686787      2.24518187      5.55734521
  H      9.16352610      6.34266186      6.32851384
  H     11.54981419      5.73958593      5.04461175
  H     12.52225120      3.78650662      4.11754789
  H     12.34968201      2.43459576      5.28452009
  H     12.18294500      1.63687025      2.94093708
  H     10.93348018      2.84038643      2.61833714
  H     10.59470380      1.46067561      3.69750942
  H      7.15670847      5.11548031      6.80661281
  H      7.68399297      3.70086288      7.74777057
  H      6.97108262      3.46105950      6.13568384
  N      8.22124692      4.37783872      1.90395892
  C      8.67124799      5.60265436      1.65954734
  N      8.38137093      6.38852384      2.68473223
  C      7.72317129      5.64761865      3.61736315
  C      7.61906444      4.38389679      3.12951386
  C      8.24983727      3.31366793      0.92878803
  C      7.99015188      1.94249018      1.52833272
  C      8.77106564      7.75824637      2.83637071
  H      9.18203645      5.90663182      0.77012196
  H      7.38185230      6.08902358      4.53418081
  H      7.16143308      3.51819066      3.56770628
  H      7.49728382      3.55557626      0.16860423
  H      9.23400482      3.33506944      0.45068463
  H      7.99925941      1.19845488      0.73544479
  H      7.02863652      1.89683347      2.02967928
  H      8.76084414      1.68857912      2.25025771
  H      9.86094209      7.81837954      2.81245291
  H      8.40138404      8.12047956      3.79339016
  H      8.35660306      8.35722544      2.02497280
 Cl      7.03503007      7.49137814      6.46591194
 Cl    -48.44479601     38.41933506     41.91049692
 Cl      5.89167427      1.92877141      4.78385329
 Cl     11.40331395      5.41406639      2.41791777
 Cl      6.41470039      6.03595148     -0.08942017
