62
Energy =    -96.26075021 au
  N      4.78338477      1.93538911      5.47522411
  C      4.37471356      1.48994994      4.29328964
  N      3.40771975      0.59671145      4.47558964
  C      3.18743996      0.46991506      5.81166339
  C      4.05506879      1.31139194      6.43929496
  C      5.81449803      2.92057927      5.68546157
  C      5.23120163      4.22620832      6.21433288
  C      2.69607086     -0.11860451      3.45754669
  H      4.80980511      1.79650697      3.35252354
  H      2.39177381     -0.14932236      6.17723043
  H      4.23401784      1.47576967      7.48075677
  H      6.52985539      2.49868133      6.40452059
  H      6.30450313      3.08699103      4.72437438
  H      6.03397401      4.94760360      6.34254929
  H      4.75343157      4.07135802      7.17917168
  H      4.50083404      4.63614435      5.51863170
  H      1.64803421     -0.20041762      3.77711942
  H      3.10402323     -1.12441096      3.34662534
  H      2.77870801      0.40915890      2.51069362
  N      8.31799818      0.95718625      4.05059923
  C      8.53284610      1.33906226      2.79307308
  N      9.29336377      2.43814445      2.79750594
  C      9.52632501      2.78015727      4.10360464
  C      8.92579561      1.84845557      4.88503063
  C      7.57147446     -0.19729325      4.48347412
  C      8.41438721     -1.46321946      4.35706850
  C      9.59495540      3.21920588      1.63492589
  H      8.20813196      0.81831461      1.91723267
  H     10.08977850      3.65040259      4.36823350
  H      8.82483853      1.73827751      5.95320634
  H      7.30832280     -0.02782491      5.53499309
  H      6.66821869     -0.27086722      3.87326721
  H      7.82999336     -2.32351776      4.67169694
  H      9.28878576     -1.38935516      4.99968453
  H      8.74173314     -1.61802699      3.32912811
  H     10.22035102      2.65592274      0.93960703
  H     10.10782071      4.13129739      1.93139227
  H      8.65226937      3.47246445      1.14283761
  N      0.36014977      2.78984125      3.75722866
  C     -0.48389609      2.60751873      4.76973001
  N      0.13822365      2.88563594      5.91011558
  C      1.39320970      3.32342002      5.61554171
  C      1.53534795      3.27006000      4.26744536
  C      0.03468561      2.64594624      2.36291599
  C     -0.40212254      3.98555173      1.77738920
  C     -0.48570371      2.79380654      7.19324186
  H     -1.46051622      2.17778962      4.69507921
  H      2.07800700      3.63386745      6.37747253
  H      2.36404134      3.52628195      3.63904617
  H      0.91123391      2.25218478      1.83862441
  H     -0.77568293      1.91799325      2.29046792
  H     -0.85440866      3.84434454      0.79961892
  H      0.44707809      4.65831842      1.68217958
  H     -1.12771833      4.44091666      2.45029842
  H     -1.39013960      3.40342449      7.17557765
  H      0.19185090      3.15460176      7.96121876
  H     -0.74880806      1.75258030      7.38810914
 Cl     30.97640657     13.42771360    -20.09872240
 Cl      7.53432667      0.89800406      7.63623883
 Cl      6.32745832      2.59219644      1.96652396
 Cl     -1.90937571      4.78232811      4.78007780
 Cl      0.03573393     -0.16358959      5.27985961
