62
Energy =    -95.90396792 au
  N      5.67401732      1.40622710      5.27921616
  C      5.82067119      1.12708133      6.57987162
  N      6.27926320     -0.12385666      6.68828194
  C      6.45492393     -0.64253590      5.43552268
  C      6.07394270      0.32452068      4.54394165
  C      5.24708497      2.69874322      4.73098517
  C      6.33704957      3.32385062      3.88057822
  C      6.71735135     -0.75890383      7.92593133
  H      5.66965323      1.80903310      7.39702934
  H      6.85343018     -1.62749951      5.27547666
  H      6.08763033      0.32976319      3.46982388
  H      4.33740269      2.52551300      4.15673241
  H      5.00093923      3.32780749      5.58328543
  H      5.98226877      4.28123463      3.50144145
  H      6.59552362      2.68970978      3.03514955
  H      7.23638309      3.48435845      4.46692835
  H      7.80376381     -0.77728417      7.93749848
  H      6.31022540     -1.76552080      7.96710419
  H      6.36635894     -0.16850438      8.76464882
  N      2.15879451      8.50120594      2.17603470
  C      2.98458594      9.51428359      2.46391755
  N      3.66336157      9.82625659      1.35538619
  C      3.24413693      9.01771994      0.33567554
  C      2.29188872      8.18060673      0.85309866
  C      1.19632727      7.89962429      3.10618667
  C     -0.22959554      8.09241150      2.62498891
  C      4.55146988     10.97300443      1.20302092
  H      3.04354512     10.03958132      3.39997175
  H      3.62622769      9.11394574     -0.66398566
  H      1.69569736      7.42253573      0.37999397
  H      1.45024104      6.84430082      3.20166952
  H      1.35729096      8.38027040      4.06836926
  H     -0.90874607      7.63925301      3.34582189
  H     -0.38947350      7.62491378      1.65567060
  H     -0.46318372      9.14832154      2.53085828
  H      4.03288699     11.73604587      0.62891011
  H      5.45642491     10.65100283      0.69498959
  H      4.78304398     11.36836167      2.18550772
  N      3.71875449      5.23510191      0.29109133
  C      4.62231259      4.70837145     -0.54393688
  N      5.69168761      5.51029217     -0.56023145
  C      5.47897466      6.55162219      0.29981251
  C      4.23252983      6.37780705      0.83965088
  C      2.42696353      4.63023803      0.63582624
  C      2.35383041      4.29100182      2.11283145
  C      6.95742094      5.21742138     -1.22289878
  H      4.54039077      3.76749503     -1.05740716
  H      6.22302599      7.30579059      0.47923635
  H      3.70316281      6.95313750      1.57633890
  H      1.64838803      5.33495234      0.34514650
  H      2.33099401      3.73887005      0.02021411
  H      1.38533859      3.83917645      2.32277350
  H      2.46415322      5.17918803      2.73141628
  H      3.13899568      3.59269365      2.38532222
  H      7.68038246      4.92019643     -0.46808248
  H      7.29013104      6.10597869     -1.75251596
  H      6.80864809      4.39350318     -1.91154938
 Cl     10.33613310      3.00089386      0.82880616
 Cl     -3.10809555      6.63065047      6.89908102
 Cl     24.26876789     44.39467998     -3.89239414
 Cl      1.17586907     10.07770376      1.43541853
 Cl     -4.71579907    -21.79480104     24.79359396
