62
Energy =    -96.25516122 au
  N      3.77368183      9.75221004      2.87430833
  C      2.74406988     10.44814025      2.38510590
  N      1.89498656      9.60081669      1.79960401
  C      2.45979480      8.35567054      1.80713563
  C      3.62892967      8.44827753      2.48544339
  C      4.85510782     10.31746168      3.63351259
  C      4.54003038     10.28174342      5.12632512
  C      0.70226090     10.01737301      1.12697906
  H      2.50636552     11.45706783      2.64797596
  H      1.99102733      7.51371427      1.33991166
  H      4.36577245      7.70580999      2.71078750
  H      5.76885547      9.75989881      3.40936872
  H      4.98379568     11.34648773      3.29169795
  H      5.24698374     10.89478555      5.67793339
  H      4.58401877      9.26273876      5.50479396
  H      3.53424566     10.66170080      5.29062786
  H      0.05270611     10.53188443      1.83644882
  H      0.19107433      9.15201396      0.71120302
  H      0.97796425     10.70767169      0.32596019
  N      1.35699156      0.40104500      2.70472989
  C      0.78746568      0.50287723      1.50676255
  N      1.63784435      1.08894476      0.66787999
  C      2.81028966      1.29723109      1.32977184
  C      2.63688283      0.86810011      2.60388125
  C      0.76257670     -0.19862675      3.86876764
  C      1.16879572     -1.66517078      3.97692445
  C      1.37429717      1.29950142     -0.72318490
  H     -0.24422208      0.31201614      1.29965872
  H      3.66005671      1.74018109      0.85244135
  H      3.30569287      0.87104750      3.43954033
  H      1.07647409      0.37149243      4.74850383
  H     -0.32084162     -0.11322353      3.76678355
  H      0.58257618     -2.16667196      4.74182912
  H      2.22463637     -1.75566588      4.22169509
  H      0.99711780     -2.14599913      3.01565911
  H      2.25475110      1.72005334     -1.20355495
  H      0.53126249      1.98162186     -0.84107645
  H      1.12793540      0.33336528     -1.17116804
  N      2.20727075      5.54970909      4.30146564
  C      1.02851246      5.90842610      3.79018332
  N      0.72229956      7.12615153      4.23293232
  C      1.72773214      7.56334815      5.03868447
  C      2.66284018      6.57729495      5.07939603
  C      2.87667647      4.30663172      4.01248651
  C      4.05522899      4.52351279      3.06967215
  C     -0.46504776      7.87527190      3.93946488
  H      0.43982459      5.24708998      3.16583023
  H      1.70116141      8.56114126      5.44272158
  H      3.59342598      6.52445535      5.60550296
  H      3.21879694      3.86373964      4.95218023
  H      2.13523367      3.65235057      3.53867262
  H      4.53089867      3.57018754      2.85939316
  H      4.79254447      5.19334335      3.50890679
  H      3.70514291      4.94938881      2.13342880
  H     -0.23581481      8.93489383      4.10096213
  H     -1.27451390      7.57994027      4.60892995
  H     -0.77502983      7.69546018      2.91263145
 Cl     34.55618825     -2.21795725      5.92775939
 Cl      1.01598671     -1.84325989      0.51771849
 Cl      3.78351718     11.42862427      0.38381679
 Cl      1.00472201     10.67284912      4.82330993
 Cl      0.13545309      3.23744891      2.41448185
