3055
Energy =      0.00000000 au
 Au     19.63283509     19.23289175     19.78930507
 Au     19.80843599     17.70083356     22.10684504
 Au     19.50128467     20.60998184     22.20495133
 Au     22.00123311     19.43408867     21.23818053
 Au     17.29166230     18.93592010     21.26570181
 Au     21.33666191     17.03328223     19.70143213
 Au     18.42598660     16.72539805     19.71844187
 Au     20.83968257     21.74038580     19.86017311
 Au     17.92900774     21.43250069     19.87718219
 Au     21.97400981     19.52986051     18.31291081
 Au     17.26443456     19.03169403     18.34043380
 Au     19.76438333     17.85579774     17.37366091
 Au     19.45723419     20.76494993     17.47176509
 Au     19.98646372     16.14760213     24.45641373
 Au     19.36791620     22.00610351     24.65398214
 Au     24.40236270     19.63806617     22.70707965
 Au     14.91813420     18.63484428     22.76250255
 Au     23.06403584     14.80327382     19.61234478
 Au     17.20245931     14.18325046     19.64659932
 Au     22.06320884     24.28253373     19.93202056
 Au     24.34753987     19.83093342     16.81611259
 Au     14.86330244     18.82771574     16.87153894
 Au     19.89774958     16.45967210     14.92463225
 Au     19.27920646     22.31818136     15.12219640
 Au     19.67883832     19.07105919     24.73222845
 Au     22.28956594     17.84305796     23.72261676
 Au     17.37130005     17.32281406     23.75135758
 Au     21.59554609     15.33586634     22.11777155
 Au     18.55589060     15.01433793     22.13553435
 Au     21.96880027     20.88111641     23.82507263
 Au     17.05054410     20.36087354     23.85381339
 Au     20.75578037     23.28960765     22.38600443
 Au     17.71613089     22.96807988     22.40376721
 Au     23.88551070     17.14592605     21.21061505
 Au     23.36651021     22.06160908     21.37638604
 Au     24.55109904     19.75313337     19.76056459
 Au     15.92759325     16.30415416     21.25711866
 Au     15.40858982     21.21983687     21.42288966
 Au     14.71457157     18.71264603     19.81804621
 Au     20.15183559     14.31720703     19.62353443
 Au     23.85708016     17.24594268     18.15572473
 Au     21.54954187     15.49769973     17.17485038
 Au     15.89916104     16.40417062     18.20222835
 Au     18.50988819     15.17617151     17.19261318
 Au     19.11383557     24.14857645     19.95507892
 Au     23.33808133     22.16162588     18.32149571
 Au     20.70978020     23.45144417     17.44307355
 Au     15.38015595     21.31985315     18.36799936
 Au     17.67012376     23.12991566     17.46083636
 Au     22.21512870     18.10490604     15.72479949
 Au     21.89437173     21.14296552     15.82725158
 Au     17.29686820     17.58466271     15.75354029
 Au     16.97610349     20.62272138     15.85599242
 Au     19.58683223     19.39472087     14.84638156
 Au     16.20163328     23.66250851     19.96627379
  O     13.43642491     -0.27423024     28.89825624
  H     13.85256074      0.50419247     29.27573347
  H     12.73252904     -0.57427378     29.47800142
  O     22.75420344     10.65953464      2.03200299
  H     23.17097279     10.34283081      1.22726577
  H     21.86151323     10.95347191      1.83628620
  O     21.89016960     17.23114685     31.69569357
  H     21.50617776     16.46007671     32.11948729
  H     21.67001375     18.01732814     32.20071870
  O     30.62859194     32.38921624     30.26696980
  H     30.87152925     32.66274838     31.15452917
  H     30.21128742     33.12229704     29.80865824
  O      5.84908748     16.72495519      4.95701000
  H      5.60874494     17.23504871      5.73395276
  H      6.55089113     17.17601115      4.48201511
  O     36.88695392     29.52847432     16.00356862
  H     36.33449902     29.49438721     16.78793566
  H     37.80749956     29.61055646     16.26329588
  O     18.51032683      5.48597681      9.14066411
  H     18.36012934      5.92747757      9.97978138
  H     18.49883601      4.53511197      9.27228488
  O     19.72665743     29.81719643     19.55212509
  H     18.99546939     29.75460157     18.93321803
  H     20.13636719     30.68217856     19.47766816
  O     31.08680085      0.59693918      9.16949363
  H     30.82254972      1.31620508      8.59119621
  H     31.29526653     -0.17791078      8.64247408
  O     36.27522198     20.67064474      9.02910369
  H     36.62190681     21.12868148      9.79826686
  H     35.31927602     20.61203054      9.09491943
  O     37.74001628     26.17826214     16.92184714
  H     37.95603992     27.05668794     17.24325327
  H     38.52449092     25.62553133     16.94808046
  O      6.46073204     16.94450572     26.01796459
  H      5.72120808     17.55018833     25.92934806
  H      6.35088968     16.21295431     25.40610905
  O     29.15154650      0.99099862     32.61752892
  H     29.07332419      0.13326078     32.19353946
  H     29.03904388      0.89123675     33.56568014
  O     39.11204013     28.04918299     27.59179639
  H     38.21683627     27.72936410     27.72568414
  H     39.24716208     28.84828660     28.10635978
  O      3.25943787      8.81750468     32.26845670
  H      2.35572430      8.76634896     31.94863664
  H      3.79072629      8.14447718     31.83675471
  O     38.42288039     35.37459820      8.38710216
  H     39.15046049     35.70238405      7.85345092
  H     37.59988974     35.47493265      7.90313998
  O     27.76623232      6.11701336     13.58376457
  H     28.03051690      5.35941683     13.05669611
  H     26.81131897      6.12136893     13.68236231
  O      8.89966853     34.11858039     27.98861847
  H      8.58489410     33.81729139     27.13319928
  H      9.85790753     34.17524357     27.97568360
  O     38.08240377     27.22840691     19.52539692
  H     39.01354838     27.44131263     19.42926746
  H     37.88999979     27.04109486     20.44707740
  O      4.97675632     30.78094998     24.28622111
  H      5.21918061     30.14285978     23.61118677
  H      5.72987899     31.34368031     24.48049109
  O     32.95932333     -0.64002350     30.26763507
  H     32.34272930     -1.37011969     30.17613998
  H     33.44821013     -0.52894538     29.44894627
  O     18.53619871     33.71282410      4.52250154
  H     17.58518636     33.84379665      4.51784353
  H     18.87258966     33.77464854      3.62549603
  O     37.39788215     20.10187630     39.95500708
  H     38.22664456     19.70277648     39.68028504
  H     37.15029033     20.78810093     39.33099261
  O     14.78007974     10.19963770     14.41274484
  H     14.92715599      9.34481238     14.82413547
  H     14.24054277     10.74461391     14.99024010
  O     19.02566191     21.18274116     30.47712126
  H     18.53289012     20.80387068     29.74552498
  H     19.09303793     20.53865511     31.18579159
  O     36.19091818     16.90806204     32.15737589
  H     36.03490820     16.16868981     31.56526982
  H     36.67129550     17.59614913     31.69114228
  O     17.95778060     29.75938322      7.05073171
  H     17.96042928     28.88753236      7.45256383
  H     17.19167048     29.84630369      6.47878756
  O      5.08979629     31.33095369     27.14858820
  H      4.69374479     32.13072487     26.79488031
  H      5.40671496     31.49720430     28.03938745
  O     15.36455646     26.23402750     36.69996071
  H     15.64636346     26.22438299     37.61761631
  H     15.18522682     27.13745188     36.42928513
  O     28.69158921     16.58562939      0.67840290
  H     29.56016302     16.62165053      0.27111675
  H     28.01667240     16.60247046     -0.00409522
  O     35.55707337     27.07782431     20.07840725
  H     34.94736066     27.64223684     19.59748220
  H     35.96817751     27.57976873     20.78597009
  O      7.92248790     16.17962593     29.55829990
  H      8.62764223     15.58145310     29.81626626
  H      7.42850548     15.79722890     28.82935966
  O     17.81259359     39.98538611     10.07101116
  H     17.68387008     40.88285318      9.75544322
  H     17.36807431     39.37162739      9.48168710
  O      5.78855400     34.41794426     15.21402092
  H      5.36556892     34.27292621     16.06352277
  H      5.19059603     34.15733053     14.50965826
  O      6.00057031     12.53277247     24.49967112
  H      5.18480424     12.53965028     23.99362921
  H      6.74944481     12.49975006     23.89992408
  O     20.83005770     31.44424865     23.71504732
  H     21.51074470     31.04445632     23.16875865
  H     20.15311503     31.82872439     23.15332939
  O     25.11725872     16.36793205      1.76993786
  H     26.05601649     16.42634600      1.57778772
  H     24.96143583     16.61435716      2.68459293
  O      9.64292999      0.91783951     13.24700313
  H      8.69230522      1.00619667     13.34752955
  H      9.86324779     -0.00110365     13.07787730
  O     11.44326628     32.56414298     23.98750359
  H     11.83284414     33.44140196     24.00318106
  H     11.32620959     32.28170992     23.07748749
  O      6.78771065     28.59140201      9.08551175
  H      6.50976963     28.18451293      9.90939892
  H      7.44015271     29.27153196      9.26811136
  O     24.85130308     35.31887912      8.64630158
  H     23.89766214     35.23956992      8.72297628
  H     25.09086533     35.42429951      7.72266936
  O     27.94194836      3.78044558     30.96978744
  H     27.05519212      4.14539997     30.92427185
  H     27.93601283      2.99124312     31.51634417
  O     38.21040737     38.98422359      2.32771512
  H     39.06209939     38.55011497      2.23956507
  H     37.75077334     38.96219807      1.48518830
  O     11.35849465     37.24692111     38.77999642
  H     10.87671025     36.49013274     38.43830187
  H     12.11083382     37.43061611     38.21268528
  O      9.53011975     33.53904554     29.90263080
  H      9.58177354     32.71048593     30.38473127
  H     10.32073960     34.05714656     30.07023626
  O     11.33418885     15.77113242     18.84368752
  H     11.61591327     15.03271403     18.29873830
  H     10.88166376     15.44003294     19.62291418
  O     37.23163099      0.91132644      5.19861752
  H     37.16571364      0.13812459      5.76378459
  H     37.30297008      1.69989749      5.74144939
  O     32.84397297     27.81777633     11.64531962
  H     33.04645278     26.91461694     11.90008432
  H     32.47646160     28.28809932     12.39720504
  O     34.70782087      8.04988764     31.51819878
  H     34.95941595      8.73743606     32.13914732
  H     34.64005602      7.21068281     31.97943970
  O      6.25726710     21.17800448     34.27465710
  H      6.36164084     22.01533719     34.73245623
  H      6.94901653     21.08471682     33.61558188
  O     21.07708673      6.23423647      6.31391906
  H     21.88061315      6.05141085      6.80638234
  H     20.33722732      6.30262694      6.92180952
  O      5.63269022     18.82634239     33.50074068
  H      4.87362252     19.33196383     33.20113563
  H      6.43568943     19.21027627     33.14103657
  O      6.85631452     34.65586616     32.65886423
  H      7.62205624     34.44045178     33.19629912
  H      6.10049585     34.81768998     33.22820701
  O     35.60947553     20.00894844     13.92526954
  H     36.42605520     19.80860520     13.46195514
  H     35.51480468     20.96041653     14.01097786
  O     25.67298011     39.96387071     36.94783066
  H     26.23986780     40.59809591     36.50286242
  H     25.25584728     39.39488815     36.29678607
  O     16.65101721      8.02359947     31.02442693
  H     15.77287685      8.31796043     30.77179845
  H     16.71084930      7.07074997     30.92393834
  O     32.77046206      3.67932301     32.33139587
  H     33.32835687      4.12102021     31.68699151
  H     33.31616452      3.31884032     33.03414835
  O     30.84256667     37.65811371     11.87788838
  H     31.31264495     38.25576833     11.29185479
  H     30.35507937     37.01588195     11.35683705
  O     31.49882021      6.16962581      1.11967646
  H     30.87416972      5.95222134      1.81548324
  H     31.93685895      6.99768890      1.32951825
  O     25.23429085     32.40978319      8.74663881
  H     26.12886221     32.08910218      8.88267470
  H     24.98523428     32.28463932      7.82799315
  O     19.70984673     33.95881564     12.63467064
  H     19.52096024     34.27234401     11.74719001
  H     20.42347166     34.47782545     13.01278209
  O     28.02672083      6.29648475      9.04743839
  H     28.70785079      5.88781756      8.50831585
  H     27.34998150      6.67127307      8.47896887
  O     11.10947509      3.75129127      2.71157839
  H     10.25957232      4.00009351      2.34095360
  H     11.63031090      4.54055207      2.87710013
  O     37.12974960      7.31522740     16.52158774
  H     37.91175361      6.76310004     16.44930280
  H     36.40033610      6.90035719     16.05528455
  O     36.28731244     17.81090591      2.45151618
  H     36.18299344     17.09935117      3.08744653
  H     36.56434405     18.60944238      2.90670075
  O     17.73096976      5.91046584     37.44478704
  H     16.90895752      5.41707411     37.39518370
  H     17.86033375      6.22831628     38.34135609
  O      5.56646725     23.87851565      0.83122211
  H      4.70085218     24.27356764      0.70376824
  H      6.07063088     24.40580635      1.45522817
  O     15.89847053     22.88940853      3.38295636
  H     15.44782020     22.32024369      4.01110099
  H     15.89830761     23.79173461      3.71068737
  O      9.13984919     37.27548307     10.74785027
  H     10.00958599     37.46443229     10.38805019
  H      9.22063170     37.04193890     11.67549854
  O      3.54138313     13.85955398     17.15059491
  H      2.67586242     13.44570472     17.18527473
  H      3.93648142     13.70444663     16.28952636
  O     27.20026703     29.20721121     31.48748963
  H     26.96666902     28.49478321     32.08705475
  H     26.79232260     29.05304393     30.63226230
  O      0.13978114     33.46576457      7.33694154
  H     -0.78722823     33.28070288      7.16959219
  H      0.63626334     33.38009314      6.51977213
  O     34.03337372     34.10528594     18.29127591
  H     33.55438603     33.30269241     18.07215399
  H     33.47715471     34.86809617     18.11708930
  O     10.39465956     34.93750205     24.47379285
  H      9.94624758     34.17391661     24.84455421
  H     10.98218775     35.31515979     25.13241661
  O     32.07477820     18.70869071      7.16188471
  H     31.38884008     19.35638938      7.33957922
  H     32.08502468     18.05238266      7.86242362
  O     30.90791330     10.07617063      1.99162397
  H     30.14515525      9.56671072      1.70833831
  H     31.34056291     10.45868243      1.22474782
  O      3.88411632     10.78124714     21.09586972
  H      3.54040044     11.26910007     21.84783975
  H      4.83808397     10.70542122     21.17200218
  O      0.59821126      4.92559938     36.80328675
  H      1.53200748      5.05851629     36.98205398
  H      0.36615390      5.35394858     35.97608281
  O     13.39705391      5.29344267      0.75327243
  H     13.97336049      5.89446487      1.23102032
  H     13.68651316      5.22985560     -0.15983765
  O     19.28391310     38.87365372     12.10571804
  H     18.58547364     38.22463502     11.99365976
  H     19.00823702     39.53379348     12.74588848
  O      7.59718497     17.50930174     33.57357466
  H      7.72980543     17.77659153     34.48602629
  H      7.61244025     16.55122039     33.51486011
  O     11.81206964      0.88764251      3.98483904
  H     11.83436588      1.64292554      4.57699648
  H     11.89782339      0.07844770      4.49420144
  O     26.66895873     11.13168842     34.82013905
  H     25.91793420     10.55013831     34.68099297
  H     27.47924815     10.66755091     34.59741180
  O     24.72836527      3.22968753      9.25923189
  H     24.87853214      3.51982820     10.16193246
  H     23.87947849      3.55813256      8.95408422
  O      4.51467267      5.90884591      7.28234465
  H      4.68249522      6.78363658      7.64036262
  H      4.74465888      5.24521598      7.93679226
  O     15.92865482     35.67463710      2.87095708
  H     15.78341300     36.45685432      3.40821032
  H     15.14476914     35.49615051      2.34629931
  O     27.38782475     36.96130787     12.01046060
  H     27.92442041     37.75323380     12.09119745
  H     26.47845887     37.20778455     11.82633308
  O      5.23847914     14.09495561     -0.03881012
  H      6.17512024     14.00180183     -0.22755818
  H      4.92776042     13.31842053      0.43240868
  O     13.98090624     13.69307237     36.25733624
  H     13.08696103     13.44224875     36.01330866
  H     14.48675951     12.90633214     36.47355901
  O     25.89149452     20.68774404     24.35672559
  H     26.27145391     21.49968255     24.70021752
  H     26.31559793     19.93406679     24.77350719
  O     29.62783985      8.65110644     35.67568750
  H     29.89382556      8.84803259     36.57683771
  H     28.68797259      8.45671568     35.65419885
  O     12.75172834     17.04796735     16.56471220
  H     11.81567599     16.83812353     16.60174702
  H     13.17140951     16.78718005     17.38779039
  O     16.96594233     39.98609451     38.64054790
  H     16.37432330     39.23370162     38.56644077
  H     17.62984886     39.80695133     39.31042539
  O     -0.13351811     17.06667250      4.43200802
  H     -0.78996305     16.37922710      4.56654006
  H      0.74393455     16.70414339      4.57430871
  O     39.09527919      5.73973984      7.87353179
  H     39.98541376      5.39582129      7.76874395
  H     38.72592325      5.94118657      7.01063237
  O     34.44878678     22.60578510     17.95098440
  H     33.62232578     22.53805661     17.46727471
  H     34.26427092     22.72836552     18.88507644
  O      9.94166493     19.09699949     16.85015078
  H     10.29982833     19.98131440     16.95648104
  H      8.98880551     19.14770480     16.74485170
  O      8.78392983     22.38130785      6.23538592
  H      9.35132289     22.49046632      5.46873766
  H      7.90916357     22.72400333      6.03804404
  O      2.04299900     14.36942917     32.26858671
  H      1.22826612     14.43865784     31.76557803
  H      2.12140030     15.12387808     32.85702539
  O     36.26806652     37.12654689     26.66298055
  H     35.33680560     37.03872901     26.87894612
  H     36.78472723     37.14027502     27.47197576
  O     25.85756288     27.15962210     11.68249612
  H     24.95586794     27.37763190     11.43547800
  H     25.87916659     26.87716393     12.59974781
  O     27.87483899      5.70446123     17.85738423
  H     27.88897355      6.33734331     18.57909089
  H     27.27754709      4.98477390     18.07393105
  O      5.21162872     13.51111551     13.89516803
  H      4.66013180     13.51262485     13.10938888
  H      5.80696960     14.26381056     13.87028039
  O     39.09441700      3.52015854      5.49889938
  H     39.13073601      4.47669734      5.57179971
  H     38.92740398      3.27445825      4.58602588
  O     14.37704044      9.68060746      0.50332323
  H     13.48547065     10.03546691      0.47542940
  H     14.78925448      9.91496699      1.33804187
  O     34.50574787     15.80293215      8.70501294
  H     33.61350751     15.45031666      8.67081558
  H     34.70195559     16.25860583      7.88314675
  O     31.78524757     23.00722118     36.45766646
  H     31.19614502     22.60785095     35.81341371
  H     32.69495897     22.79951004     36.23209773
  O     23.48780273      0.23896669      6.59493315
  H     23.80759269     -0.50821946      7.10586097
  H     24.23376498      0.75525103      6.28094141
  O      0.93873382      3.49094540      0.76931806
  H      1.66033046      3.73201835      0.18384207
  H      0.12025469      3.87187152      0.44284110
  O     23.66627924     29.42206120      6.42564011
  H     23.52742184     28.96335321      7.25744875
  H     24.17855178     28.86558728      5.83444333
  O     13.63893910     33.13717670     39.72087997
  H     14.06943247     33.76702128     39.13815252
  H     13.18813626     32.47148514     39.19625482
  O     29.69045501     33.97289213     20.72829142
  H     29.43236959     34.49073682     19.96224391
  H     30.20577001     33.21458318     20.44365481
  O     27.22049857     34.72723408     12.00809856
  H     26.34748648     34.99150180     12.30745197
  H     27.54345459     34.00863233     12.55665206
  O     16.77753042      4.69779243     34.90024595
  H     16.14615766      4.22041636     34.35703279
  H     17.38297883      5.18389453     34.33567799
  O     21.27128594      5.30787860      3.13617196
  H     22.20022149      5.46042730      3.32434117
  H     20.80507315      5.12104166      3.95430250
  O     24.02423273     19.36073574      1.70753101
  H     24.52580393     19.64231158      0.93893398
  H     23.52746691     18.56774095      1.49309456
  O     37.70102273     19.10369239      6.98190361
  H     37.48744507     19.61282429      7.76725022
  H     38.19324538     18.31865724      7.23297469
  O     23.01234085      2.82976376      4.92967296
  H     22.14255150      3.09340791      5.23879794
  H     23.02569861      2.83246483      3.96976969
  O     12.23422375      2.47123111      7.20410405
  H     12.05970539      3.30456458      6.76059680
  H     12.35442321      1.77904663      6.54986195
  O     10.32347802      1.39257456     15.67786788
  H      9.81226774      0.63498728     15.38405574
  H     10.71237778      1.83108943     14.91756419
  O     10.42446735     17.31470807     21.57138362
  H     10.03871415     16.74343947     20.90321698
  H     11.03600421     17.92676805     21.15544462
  O     36.35681446     13.01196673     29.52246810
  H     36.86535016     13.77006825     29.22535949
  H     35.57008089     13.31409195     29.98221873
  O     23.87818119     20.56361354     12.59743485
  H     23.28485722     20.87684419     11.91081033
  H     23.89866995     19.60386144     12.58994334
  O     33.77303425     36.51275749     20.72190011
  H     33.19681891     36.36268427     21.47492993
  H     34.68586967     36.54189858     21.01767416
  O     19.14305989      4.95768486     23.67139322
  H     18.22683355      4.86363129     23.40068448
  H     19.23991324      5.75001376     24.20471710
  O     10.00218407     18.51008115     32.69555071
  H      9.61196284     18.58464239     31.82161249
  H     10.13809362     19.38704500     33.06169685
  O      1.29594511     24.55628227     31.77440601
  H      2.24679206     24.55010039     31.64230050
  H      1.08769301     25.03178599     32.58194999
  O     26.51748620     31.84080843     38.46005672
  H     26.44381447     32.34279293     39.27503159
  H     26.51114205     30.90194552     38.66029708
  O      7.51478091     31.00650717     12.64978104
  H      6.87797702     31.09551092     13.36263386
  H      7.60243929     31.84563408     12.19176134
  O     17.36610547      0.92264445     27.95638249
  H     17.40341759      1.74384886     28.45219608
  H     17.99382835      0.29687217     28.32512772
  O     11.68256849     19.03823164     26.49728329
  H     12.24851143     18.38165613     26.90985717
  H     10.96826812     18.59798600     26.03085135
  O     36.82159655     17.34638479     39.11216975
  H     37.65842640     17.38911850     39.58066696
  H     36.09974370     17.34482181     39.74504100
  O     27.05610276     10.17377441     -0.43851822
  H     27.39156526      9.77968071      0.37003300
  H     26.15621311     10.47708564     -0.29780246
  O     21.76294049     31.05046478      1.05574199
  H     21.22061415     31.72569653      0.64156301
  H     21.43006125     30.86841768      1.93758681
  O     32.69946502      6.39655715     35.64701876
  H     32.73211411      6.32166998     34.69050114
  H     31.82520565      6.68798304     35.91598250
  O     22.15240883      9.49360734     13.46341563
  H     22.88886354      9.43662732     12.85023723
  H     21.53303240      8.78157643     13.28739057
  O     32.48150805     17.37118448     17.07671090
  H     31.81747785     17.57093632     16.41281098
  H     33.34427268     17.64960050     16.76092345
  O     15.71156805      2.64183816     10.90278514
  H     16.43915653      2.33103202     10.35908067
  H     14.99668853      2.94530719     10.33846800
  O     16.00661125     33.32976564     27.20685651
  H     15.93536773     34.25608769     27.44862462
  H     16.17359847     32.80522944     27.99335320
  O     39.20556818     14.33889075     28.35084639
  H     38.54535719     14.60657020     27.70736433
  H     39.21547437     14.96444377     29.07898463
  O     22.08488128     27.22403784     28.14330308
  H     21.54827869     26.60414118     28.64268850
  H     22.67561303     27.68956319     28.73989520
  O     12.98218727     36.40300626     32.41671851
  H     12.80718681     35.75927600     31.72636628
  H     13.36710809     35.96093147     33.17698546
  O     36.48566335     26.45150564     23.36952638
  H     36.24229855     25.60745146     23.75675516
  H     36.90373200     27.00131600     24.03625509
  O      9.85397633     23.62312912     25.61404923
  H     10.57432762     23.30604595     26.16373304
  H      9.18249122     24.02802011     26.16791838
  O     27.69485517     26.71557257     15.74484725
  H     27.67805894     27.09451773     16.62673072
  H     26.96584049     27.06936633     15.23009725
  O     13.55616688      8.97316669      8.97017073
  H     14.37906291      8.76911715      9.42051052
  H     12.82617151      8.90449887      9.58984119
  O     27.67365630      9.02890038     32.07453712
  H     28.52770690      8.91012953     31.65252875
  H     27.47889594      8.26618828     32.62402658
  O     17.50875375     10.37247157     30.68030788
  H     16.61182173     10.44299176     31.01518077
  H     18.12195981     10.31317105     31.41655633
  O     -0.23149941     10.95311695     22.58838725
  H     -0.36828447     11.86459769     22.85688811
  H      0.49488525     10.57666309     23.09063004
  O     32.86873710     39.24905594     10.12504574
  H     32.26947055     38.82407109      9.50709147
  H     33.61369772     39.61922314      9.64586944
  O     15.86773424     30.15965373     30.29838147
  H     15.52970821     29.26424200     30.37305566
  H     15.27110642     30.76560761     30.74386451
  O     27.18795440     35.26150618     20.99842939
  H     27.63217296     35.22414104     21.84864920
  H     27.29616824     36.13646440     20.61851112
  O     11.70694095     33.66432127      9.41427559
  H     12.28496709     33.64274249      8.64810319
  H     10.88755999     33.20749619      9.21049705
  O     35.94520997     26.54743326     37.52783151
  H     35.38751683     27.27693095     37.24781101
  H     35.63293877     25.73304359     37.12676272
  O     30.55392160     29.61768095     14.63560814
  H     30.20678468     29.57243436     15.52950338
  H     31.00687045     30.45469349     14.50972185
  O     10.12914121     17.32663615      8.57888209
  H     10.37849387     16.45186077      8.27197609
  H     10.38446806     17.98075903      7.92425894
  O     24.51739789     36.71019974      3.67155057
  H     24.61910813     37.47411505      3.09910981
  H     25.34777874     36.23056088      3.71643060
  O      1.30535747     33.02820124     37.33523485
  H      1.36617819     33.71025203     36.66239938
  H      1.99648565     33.15985353     37.98838837
  O     30.92797119     11.42526935     39.17819749
  H     31.52177318     12.17806884     39.13032129
  H     31.20093204     10.84683270     39.89409094
  O      2.52506138     12.32820022     32.39684796
  H      1.80171860     12.37613235     33.02619503
  H      3.36148245     12.36137714     32.86684699
  O     33.73196962     27.11504875     38.96706996
  H     33.12392303     27.11786967     39.70995043
  H     33.69173554     27.96195302     38.51680960
  O     13.11248973     35.06092206      5.28742555
  H     12.74870065     35.93000084      5.10314430
  H     13.07247022     34.52195262      4.49400865
  O     21.22338720     18.36445210      6.69354660
  H     21.00299202     17.43013807      6.70267190
  H     21.94425181     18.51766328      6.07833887
  O     17.32886586     37.38482086      2.26226825
  H     17.70808202     36.54891276      2.54343146
  H     18.01673494     37.93792972      1.88476763
  O     10.97502482     22.69190792     21.42128184
  H     10.43121394     22.38007774     22.14835244
  H     11.45867156     23.47450713     21.69555234
  O     34.78783710      1.77550844      7.19719741
  H     34.88548094      2.60809122      7.66503455
  H     34.52296260      1.94658220      6.29045860
  O     11.77492161     34.69781771     21.69305150
  H     11.39707864     35.03353900     20.87688614
  H     11.71873224     33.73950345     21.70180052
  O      4.26889682     18.61441052     14.44507723
  H      3.83661660     18.01259227     13.83470963
  H      4.94696739     18.14254589     14.93412128
  O     34.63229331     28.42634526     28.95967582
  H     34.67891847     27.65203690     28.39410296
  H     34.17905845     29.13464240     28.49654159
  O     29.93933874     25.72977397      2.30881710
  H     29.33895830     25.35210910      2.95574259
  H     30.79458209     25.88366689      2.71683154