3055
Energy =      0.00000000 au
 Au     19.46875219     20.05806032     19.73174337
 Au     20.85725071     19.20208928     21.98749489
 Au     20.67036291     22.03582225     21.27887586
 Au     22.24580992     20.21258716     19.61728227
 Au     18.29247167     20.59683966     22.19651728
 Au     20.84159594     17.64678062     19.50800293
 Au     18.39829849     17.88426287     21.10205829
 Au     20.53920767     22.23185960     18.36143270
 Au     18.09591026     22.46934070     19.95548760
 Au     20.64503566     19.51927858     17.26697138
 Au     16.69169461     19.90353431     19.84620934
 Au     18.26714076     18.08029565     18.18461493
 Au     18.08025368     20.91403136     17.47599184
 Au     22.26493846     18.33428861     24.27442120
 Au     21.88858003     24.04091711     22.84738994
 Au     25.06124695     20.36924959     19.50123932
 Au     17.09993480     21.14306502     24.69535470
 Au     22.23341256     15.20217672     19.28117037
 Au     17.31305096     15.68042324     22.49131114
 Au     21.62445698     24.43570106     16.97218417
 Au     21.83757552     18.97305080     14.76813592
 Au     13.87625775     19.74687274     19.96225725
 Au     17.04892290     16.07519802     16.61610498
 Au     16.67256593     21.78183203     15.18906553
 Au     22.17363512     21.22956226     23.70313975
 Au     23.81889384     19.32553358     21.96791640
 Au     19.69037142     19.72681345     24.66144499
 Au     22.35245595     16.64603033     21.85379464
 Au     19.80088877     16.89403493     23.51848685
 Au     23.62372265     22.28483622     21.22790085
 Au     19.49520839     22.68611530     23.92142411
 Au     21.84149930     24.39358445     19.91640344
 Au     19.28993716     24.64158856     21.58109236
 Au     23.80254537     17.70130599     19.37855305
 Au     23.48675629     22.48955607     18.18117276
 Au     23.59727316     19.65677874     17.03821679
 Au     17.12245908     18.35059014     23.73677169
 Au     16.80666752     23.13884046     22.53939302
 Au     15.34023194     20.45933813     22.42527159
 Au     19.78454147     15.26980873     20.92912447
 Au     22.13083897     16.97727764     16.92409849
 Au     19.64757339     15.47452995     17.88240027
 Au     15.45075127     17.62656193     21.28231805
 Au     17.09600773     15.72253440     19.54709149
 Au     19.15296548     24.84631259     18.53436433
 Au     21.81505128     21.76552759     15.72671730
 Au     19.13661493     23.22208368     15.94499824
 Au     15.13495832     22.41481239     20.08494028
 Au     16.58504695     23.47008836     17.60969098
 Au     19.44229966     17.43000190     15.54206476
 Au     19.24713376     20.38930295     14.80204143
 Au     15.31378177     17.83128134     18.23559039
 Au     15.11860937     20.79058301     17.49557129
 Au     16.76386949     18.88655504     15.76034782
 Au     16.70409548     24.91394529     20.18232402
  O     25.00103043     11.67074023      7.99459256
  H     25.77533772     11.55682195      7.43865116
  H     24.24712910     11.23869701      7.58646090
  O     25.41979815      2.66330708     31.98433440
  H     24.76715827      3.13937395     31.46566154
  H     26.07530651      2.27756135     31.39857931
  O     31.01581000     34.76984028      2.03196196
  H     30.43322658     34.81490617      1.27027591
  H     31.84456134     34.35746014      1.77757280
  O     14.78505453     30.24777536     24.14411869
  H     14.41546350     31.06338345     23.79801768
  H     15.23408970     29.77505931     23.43948620
  O     35.36183275     30.95778696     18.67397357
  H     35.29131400     30.78533819     19.61572116
  H     34.49102745     31.14654473     18.31666610
  O     30.77405918     34.97497442     15.31368988
  H     31.42150685     35.53620627     14.88075764
  H     30.87592355     35.04376236     16.26578855
  O      4.22141806      4.34773757     28.41720088
  H      3.86858213      5.18563734     28.10893025
  H      5.17739596      4.40697807     28.48198372
  O     14.98398624     16.86701774     34.49441212
  H     15.92042098     16.98392108     34.31827697
  H     14.86357296     16.55670384     35.39485975
  O     30.05876341     17.60199635     12.52195580
  H     30.93960168     17.91428211     12.74150430
  H     29.68364793     17.14374417     13.27753062
  O     39.39515085     21.03400380     35.60624309
  H     38.84106006     20.67007425     34.91188102
  H     39.87224127     21.79586704     35.26927255
  O      8.08217508     24.71583515     20.21459149
  H      8.74594075     24.34993451     20.80377046
  H      7.25691860     24.82825643     20.69199406
  O     30.78537879     23.36321652      4.32106502
  H     31.73046490     23.43430654      4.16823031
  H     30.62342279     23.18798731      5.25093866
  O     21.10642008     27.72684413     27.69313645
  H     21.36161092     28.26284436     26.93869533
  H     21.86422545     27.22343090     27.99957755
  O     10.82671334     30.35405443      4.97573614
  H     11.47932193     30.77989641      5.53641488
  H     10.30419520     29.74249384      5.49972892
  O     11.85130225      0.67614757     18.37706488
  H     11.11008575      1.28602710     18.39271942
  H     11.71440666     -0.01148220     19.03282772
  O      7.33326811     36.46471362     31.52733377
  H      6.76693713     36.15657162     30.81605483
  H      6.99765577     36.14200271     32.36687056
  O     20.81094022      1.57148026     30.09702083
  H     21.70519669      1.24586818     29.97099648
  H     20.40135198      1.72231841     29.24198555
  O     33.34641087     20.26223867      2.16740678
  H     34.04355932     19.80432275      2.64269308
  H     32.49189972     19.93804042      2.46118592
  O     24.23387563      5.70871545      5.34041714
  H     24.88399331      5.88690133      4.65689918
  H     23.41164324      5.42467380      4.93439469
  O     26.60156659     22.86034068      8.59022640
  H     27.52051865     22.63683500      8.42538609
  H     26.43427418     23.76089971      8.30281263
  O     25.70990656     14.42509094     36.74978355
  H     25.86968179     14.72483400     35.85188267
  H     26.15453932     15.01069547     37.36701046
  O     11.09145375     12.99014296     26.31404941
  H     11.91003139     12.96814453     25.81300378
  H     10.38649541     12.59810157     25.79353304
  O     14.60670850     17.05054369      2.36928883
  H     14.92613625     16.16407130      2.55295326
  H     14.69393428     17.59222256      3.15705507
  O     13.96485555     12.93556061     20.65362850
  H     13.35756119     12.94265150     19.91016143
  H     14.76264940     13.41586719     20.42032494
  O     27.97139421      0.40167569     11.92769359
  H     28.80868908      0.32779201     12.39145917
  H     27.65544752      1.30674464     11.97895652
  O     27.61296806     13.84755486     10.16247371
  H     27.79952905     14.65898079     10.64036802
  H     27.33574531     13.16781654     10.78110394
  O     20.88320233     17.35430382     33.78397343
  H     20.50233297     17.65594172     34.61195478
  H     21.77017489     17.02245864     33.94132161
  O     -0.41374931     30.43728413     14.20935952
  H     -0.85685284     30.11033577     13.42299826
  H      0.27642449     31.05424472     13.95515535
  O      8.23419800     11.58677217     10.27750550
  H      8.96771329     11.04645480     10.58018101
  H      8.39633352     12.50475147     10.50690925
  O      2.70823368      0.14737433      8.84113056
  H      3.42825387      0.24824794      9.46802405
  H      1.87038089      0.27378787      9.29237586
  O     22.46994625      4.31339699     20.71665681
  H     21.54763659      4.35712231     20.45391552
  H     22.56540129      3.70214206     21.45072476
  O     16.80783035      0.51649067     20.53446883
  H     17.55387552      0.18934613     21.04239900
  H     15.99648327      0.12911858     20.87100823
  O      7.40494167     22.69637880     22.76681627
  H      8.22737237     22.93358685     22.33214387
  H      6.69517086     22.67641831     22.12073038
  O      9.77699020      1.13622621     23.49784537
  H      9.11484264      0.95094512     24.16779428
  H      9.40977431      0.96327337     22.62787996
  O     11.65003693     34.94021496     30.46748085
  H     12.21478379     35.53358540     29.96690867
  H     10.86559233     34.73485009     29.95360154
  O      4.72040135     17.81368566     35.26198811
  H      4.17267648     18.31724908     34.65534048
  H      4.34605113     17.85914502     36.14482182
  O      2.41405611     30.34076877     39.27782838
  H      3.18639160     30.52362633     38.73777189
  H      1.64638958     30.23001301     38.71212415
  O     17.11601947     37.56134215      4.46121829
  H     16.80517552     36.75623733      4.88167312
  H     17.83264826     37.93669346      4.97808827
  O      0.63238500     20.20314246     36.59740349
  H      1.41883424     20.68500781     36.33112659
  H     -0.04265202     20.82363087     36.88186640
  O     32.16321621     15.92711528     30.05269134
  H     32.23388396     15.87948574     29.09648137
  H     31.24677461     15.80806385     30.31261740
  O     38.86684073      2.97968940      3.17926406
  H     37.93405370      3.18904720      3.26688649
  H     39.17682563      3.25391987      2.31306142
  O     29.57443700     31.17438362     22.13508442
  H     29.45410895     31.55882508     21.26369132
  H     28.92777490     31.54423499     22.74059091
  O     15.18968204     28.44170970     26.36136356
  H     15.12068983     28.67029051     27.29119736
  H     15.65621590     27.60766635     26.27016136
  O      8.12099779     39.12472471      9.02917180
  H      8.19553224     39.27212524      8.08348807
  H      8.98954581     39.18921777      9.43298486
  O     38.35689885     13.55375578      3.10617165
  H     37.85633419     13.86019094      2.34647927
  H     39.23356480     13.28263867      2.82412142
  O      5.72815910     38.94476344      1.92178020
  H      5.03083849     39.04511217      2.57391063
  H      6.24955950     39.74992773      1.88367376
  O     30.64971698     29.68544954     27.42020117
  H     30.16206345     30.36264003     26.94564129
  H     30.09027271     29.30597512     28.10183252
  O      3.39887591     34.41864559     23.72269841
  H      2.86217351     35.06232096     24.19092117
  H      4.16596782     34.19365391     24.25425156
  O     22.36046461      7.90481020     25.36001251
  H     22.48521947      7.93118220     24.40851856
  H     21.46374428      8.17322142     25.57319801
  O     19.93563706     39.61270859     24.40395273
  H     19.28745923     39.61837720     23.69583312
  H     19.97848659     40.48334533     24.80614124
  O     12.99366072     -0.95052309     13.46982453
  H     13.08049641     -0.73709038     12.53788782
  H     12.85466666     -0.14403579     13.97167998
  O     27.34347426      3.94929400     30.15567557
  H     27.47027861      4.74438029     30.67851249
  H     26.40434520      3.77308566     30.06300824
  O     23.39345609     27.44922613     38.48444137
  H     22.92560515     26.92218742     39.13631996
  H     23.97412165     28.06975446     38.93095241
  O     32.72048524     20.34045946     17.64782631
  H     33.42391442     20.36140815     16.99487260
  H     31.90535609     20.65615060     17.25095908
  O      9.60920971     12.55248288     31.88018041
  H      8.71331303     12.27758747     32.08851106
  H      9.76776482     12.44218503     30.93981098
  O      8.80521228     21.38757514      7.97421647
  H      9.22945730     21.00039936      8.74344405
  H      9.42185533     21.39612679      7.23850034
  O     37.54369148     36.27429301      2.18927263
  H     38.27951483     36.60789439      1.67074191
  H     36.85593427     35.95444118      1.60081292
  O      5.57559681     22.39582678      1.27105049
  H      4.99708950     22.90662260      1.84202941
  H      5.64419407     22.82697429      0.41606146
  O     23.74315954      3.70926501      0.34416342
  H     23.72133992      3.05325049      1.04471240
  H     23.35317606      4.52786797      0.65944437
  O     15.63422490     33.78851458     38.40614922
  H     14.80050200     33.47764018     38.04578381
  H     16.10686797     34.28748735     37.73589948
  O     23.39181780     35.32361453     23.05545371
  H     22.77481247     34.73826812     22.61017400
  H     24.28149501     35.15316484     22.73761512
  O     20.17557827     13.83104012      7.46474120
  H     20.69077630     13.20724805      6.94796810
  H     19.41874669     13.38165695      7.84796530
  O     10.46332256     19.27398088     17.89328120
  H     10.14987164     19.14605540     18.79160386
  H     11.36601137     18.95547284     17.82044207
  O     21.63709214     29.94037326      4.61866983
  H     21.14990276     30.16723628      5.41414433
  H     22.36890696     29.36179194      4.84514437
  O     26.42713140     10.67804377     13.29570652
  H     26.48726680      9.83424608     12.84184620
  H     27.11436007     11.26537034     12.97265195
  O      3.24680051      4.03465584     20.74227356
  H      3.04158419      4.42088002     19.88768761
  H      3.78570771      3.24993668     20.61819749
  O      2.28371977     36.03620263     10.29689439
  H      1.72451628     36.78219585     10.06801541
  H      1.87671697     35.22373742      9.98729948
  O     17.23963463      4.60652261      1.90331147
  H     16.37512809      4.50480825      1.49848725
  H     17.64874550      3.74418101      2.00624475
  O     27.32382716     32.46586583     21.12046406
  H     27.20023782     31.78862994     20.45137720
  H     26.68052732     32.34390156     21.82252533
  O      4.21992572     22.16408486     10.63978836
  H      3.94867343     21.32944396     11.02888573
  H      5.05653931     22.43897497     11.02203583
  O     14.63883553     36.57950144      9.60038905
  H     14.06572429     36.24389072     10.29357660
  H     15.55091315     36.55524243      9.89892869
  O     24.99178385      8.51375404     22.91553827
  H     24.63044418      7.62900688     22.82467518
  H     24.44575573      9.02244938     23.51942763
  O     36.41682038      8.69712772      8.57952366
  H     35.61621112      8.68758050      8.04986936
  H     37.18115939      8.77285547      8.00363202
  O     39.97556414     24.67118202     28.98844317
  H     39.77810265     25.40357372     29.57684045
  H     40.23302043     23.90473871     29.50601530
  O     33.41660928     39.61865036     33.75699198
  H     32.87009236     39.45114757     34.52826501
  H     32.85805370     39.70418433     32.98091235
  O     17.79050776      6.37248110     10.75100417
  H     17.76201844      7.14505879     10.18187143
  H     18.09127205      5.61341168     10.24607402
  O     34.12834918     29.58124518     32.11638298
  H     34.37618106     29.47792767     31.19469710
  H     33.74912692     30.45291530     32.25047881
  O     20.35948433      8.92066615      3.63210274
  H     20.96753506      9.49460452      3.16043647
  H     19.83062976      8.42660720      3.00137412
  O     29.33375974      4.17421396     27.20647389
  H     28.98386696      4.24160680     26.31505186
  H     28.65737178      4.43304147     27.83663867
  O     19.35037976     17.75708984     38.21532844
  H     19.39239540     18.48387936     37.58953958
  H     19.34013802     16.92390177     37.73857615
  O     24.91397118     10.22961702      1.38215891
  H     24.61888784     10.26347038      2.29505527
  H     25.83967009      9.97688152      1.35376344
  O     29.80594300     17.03255082     32.27268763
  H     30.48631295     16.39368255     32.49750769
  H     29.38993711     17.35375489     33.07603503
  O      0.20585069     32.51928514      8.49320015
  H     -0.73189639     32.40986785      8.66714920
  H      0.69519997     32.44461166      9.31573353
  O     22.91753389     36.83332556     35.09021595
  H     22.11563832     36.32241632     34.95779525
  H     23.11178945     37.33641535     34.29600851
  O     29.84430942      6.85179992     32.48949172
  H     29.39768908      6.46573559     31.73246820
  H     30.77809416      6.95530595     32.29217837
  O     28.27788824      6.38336490     28.41088383
  H     27.39009672      6.04551721     28.27201279
  H     28.72028572      6.47939127     27.56432409
  O     31.74871921     28.07839550     12.02876873
  H     31.58214161     27.83474915     12.94227208
  H     31.88598015     27.28532675     11.50550837
  O     36.67831127     29.18752516     14.24180231
  H     37.32120550     28.73179401     14.79006879
  H     36.81470393     30.13543035     14.30868124
  O     30.15000383     25.91877555     24.78719245
  H     29.56368047     26.38677293     25.38619443
  H     30.79340786     26.53193686     24.42433646
  O     21.88451575     18.43024216     32.33355739
  H     21.97781489     17.60619976     31.84997762
  H     21.83892912     19.16204841     31.71389500
  O     17.83289625     34.35446016      9.81184618
  H     17.30009115     33.95323939      9.12138211
  H     17.95062931     33.72861538     10.53021743
  O     14.53823881     13.92317024     34.10208434
  H     14.45542562     13.01987887     33.78774906
  H     15.09346355     14.42272434     33.49894987
  O      3.31498106     36.49513431     28.45117630
  H      4.16133943     36.23582006     28.07964751
  H      3.37962460     36.52064834     29.40865750
  O     22.90178275     23.66548551     39.44481031
  H     22.52934880     24.34864801     40.00711090
  H     23.36644862     23.02301895     39.98603332
  O     33.02896628     34.97510041     28.23377964
  H     33.84805888     34.47457626     28.24654256
  H     32.61623722     34.89230999     27.37099319
  O     19.13947452     21.67563012     26.80024231
  H     19.46889887     22.28458301     26.13521902
  H     18.41260637     21.16543577     26.43559944
  O      7.00263354     36.71299281     11.38356086
  H      6.20186124     36.82906768     11.90017517
  H      7.72581146     36.46588147     11.96455112
  O     37.29628128     21.99311900     25.47081839
  H     38.23014270     21.94310424     25.68761637
  H     37.12280756     22.80332291     24.98597151
  O      9.62754055     10.16479310     19.69612499
  H      9.58767556      9.33440732     20.17619816
  H     10.15624753     10.79557139     20.19027849
  O      9.30662893     13.43201193     35.03011778
  H      9.31741951     13.81869773     34.15150656
  H     10.20449785     13.37066694     35.36428569
  O      5.91526201      8.50029923      0.78945574
  H      5.51502435      9.36950493      0.86621033
  H      6.76014648      8.57511449      0.33981933
  O     17.28440765      4.79989579      5.73784064
  H     16.78675352      4.05707536      6.08735199
  H     18.11895787      4.87534237      6.20627820
  O     39.24244648     17.90285018     13.80785846
  H     39.41191138     18.78687966     14.14158519
  H     39.02663678     17.32001855     14.53952332
  O     24.26763717     23.70700293     12.40304167
  H     23.60135107     23.61034946     13.08738145
  H     25.13691950     23.75855190     12.80713440
  O     17.12725843     28.61537248     17.46793882
  H     17.99077438     28.91470200     17.17409866
  H     16.59066431     28.38701594     16.70536420
  O     14.54262480     33.74825218     26.33097224
  H     13.91385418     33.16350002     26.76028847
  H     15.25956860     33.94850591     26.93718181
  O      7.17543659     15.96388675     29.48266608
  H      7.54624917     16.63900695     30.05565016
  H      6.53344622     16.36302851     28.89094467
  O      1.83365323     13.26629290     27.30407790
  H      1.76762974     14.09751183     27.77980470
  H      1.93067108     12.54536122     27.93053226
  O     16.54965855     10.03553484      1.92411943
  H     16.87736725      9.83367146      2.80358414
  H     16.82478614     10.92088924      1.67501625
  O     16.11698236     31.80089860     15.32868200
  H     16.14643227     30.93551036     15.74321294
  H     15.94717949     32.47011840     15.99569913
  O     25.34945069      3.24367995     39.39384808
  H     25.50299516      2.33566502     39.66501776
  H     25.84679839      3.42759117     38.59358442
  O     34.98946780     20.23314224     13.10272821
  H     34.57753483     21.00141457     12.70064754
  H     35.21768979     19.59785009     12.42014589
  O      3.25060526     21.70117282      7.27933147
  H      4.04041142     21.25056626      7.58716253
  H      2.62379283     21.77910641      8.00226476
  O     10.10201237     29.28164717     36.49423879
  H      9.88571568     30.18498810     36.73670715
  H     10.57116196     29.27823545     35.65669057
  O     19.90754696     25.44046756     28.53400795
  H     19.66193011     26.33098843     28.27277059
  H     20.86434652     25.36625061     28.55903708
  O     27.71166245      8.35199086      2.41239288
  H     28.34912236      7.94272280      1.82269421
  H     27.89222736      8.08287838      3.31603816
  O     24.68660091     35.14606782     10.99605796
  H     25.17079725     35.40758237     11.78267352
  H     23.85552623     34.73922978     11.25178770
  O     21.76834168     30.52980113     27.81374458
  H     22.66336349     30.84689972     27.67237825
  H     21.30889115     31.12329844     28.41229798
  O     14.49122235      9.72621510     15.70875484
  H     13.63666337      9.29067213     15.74914372
  H     15.18480971      9.06566781     15.64384066
  O     11.37032276     17.67749718     39.04263397
  H     11.51322991     17.81240652     39.98230253
  H     10.89120699     16.85691310     38.90592314
  O     35.46181840     27.54525265     29.82287748
  H     36.16982906     26.90754503     29.70604471
  H     35.82616905     28.37335555     30.14396033
  O      1.93576927     10.07599538     38.61729997
  H      2.83193876      9.74697191     38.51618723
  H      1.92330515     10.77479722     39.27541899
  O     18.26784049     38.77119046     18.24670393
  H     18.14978662     38.25755352     17.44430728
  H     18.89777996     39.47740675     18.08535084
  O      6.41234532     38.30719725      9.68646327
  H      6.67692562     37.45068121      9.34298468
  H      5.68506305     38.19451697     10.30287519
  O      7.24324949     13.69786943     12.62781299
  H      6.95588036     14.56492046     12.92317972
  H      7.10953074     13.62153975     11.68024079
  O     25.29470060      9.22573325      6.71331761
  H     26.02187719      8.76614515      7.13945490
  H     25.10294920      8.80953853      5.86974583
  O     36.14113577     28.61217731     27.33701095
  H     36.85619809     27.98389456     27.46169719
  H     36.42910677     29.48474535     27.61503563
  O     17.65135750     29.36371961      9.24443140
  H     17.56978480     28.50473738      8.82360433
  H     18.30272889     29.88998237      8.77500321
  O     29.48542984     35.57503942     27.24005055
  H     29.05530866     35.34271465     26.41384175
  H     30.43107593     35.42979902     27.16093849
  O     22.73077210     27.09054962     19.19394289
  H     22.24499642     27.20600108     18.37400816
  H     23.61970067     26.78466443     18.99941719
  O     11.16633378     21.83863833      8.47800835
  H     11.61135749     21.10908865      8.04061702
  H     11.24813155     22.63123354      7.94256279
  O     23.80547458     32.63985267     29.23086256
  H     24.41679933     32.61595279     28.49105796
  H     22.91369871     32.78224479     28.90519355
  O     20.68909513     34.21425725     36.64187544
  H     21.55302034     34.15915159     37.05684121
  H     20.00998951     34.00106943     37.28605439
  O      1.02863146     18.11929836     17.33199765
  H      0.40672351     18.36594906     16.64352547
  H      1.13363722     18.84996880     17.94575207
  O     38.65178440     34.22972565     35.35695117
  H     39.07743044     34.91549973     35.87670050
  H     37.79875541     34.01794381     35.74307291
  O     37.27458184     29.91901532      9.66315245
  H     37.49817516     30.65736778     10.23450319
  H     36.41742593     29.56736185      9.91459545
  O     30.00221302     32.41244324     35.67587068
  H     30.53415448     32.80840824     36.37002485
  H     29.43201072     31.73893438     36.05383252
  O     21.83132921      6.74744125     20.61125346
  H     22.59593183      6.64637788     20.03961631
  H     21.03964983      6.83397607     20.07519797
  O     39.53536547     11.92776609     10.70941635
  H     38.97777676     11.26148779     10.30104391
  H     39.02230732     12.42663348     11.34934031
  O     21.03929978      5.92351423     38.58101299
  H     21.02587427      6.43017751     39.39631176
  H     20.83088846      5.00578207     38.77057144
  O     17.58765016     37.16181754      9.22346537
  H     17.37224400     37.87283802      9.83145391
  H     17.90202775     36.40146294      9.71806380
  O     27.10129273     35.56963375     34.19025896
  H     26.55186023     36.04623098     33.56369770
  H     27.73073811     35.02339571     33.71379016
  O     19.17019324     22.41997682     37.48176489
  H     19.40571454     21.72634131     36.86128161
  H     19.35964584     22.12760537     38.37631878
  O     21.93795620      5.59257881     22.70677668
  H     21.39774171      6.38547287     22.73975095
  H     22.85022502      5.83349442     22.52978719
  O      3.92878681      5.51322558     10.69592078
  H      3.24348999      5.82653954     10.10110767
  H      4.78861879      5.78157383     10.36383919
  O     19.47383125      0.96218634     16.71679116
  H     20.34441404      1.36624742     16.69629123
  H     19.52067974      0.08073752     16.33936145
  O     10.34584842     25.36415872      6.79887886
  H     11.18915334     25.52367441      6.36877241
  H     10.25377234     25.95254650      7.55182097
  O      4.48246092     26.04142553     31.22777025
  H      4.29994112     26.89292781     30.82375245
  H      5.42885963     25.94373749     31.35578021
  O      9.32231538      5.51519927     35.06601225
  H      9.91886407      5.02521996     35.63666972
  H      8.70004321      6.01103209     35.60315948
  O     10.90539150     33.50966819     11.90190503
  H     10.02122348     33.60009027     11.53904036
  H     11.55170132     33.75681154     11.23646999
  O      6.60719423     12.04496018     34.83126665
  H      6.38812053     11.18689795     34.46067803
  H      7.55969931     12.12001135     34.92454799
  O      0.50771561      8.88086276     15.68283758
  H      1.41962405      8.92082236     15.38547211
  H      0.02192641      9.62908269     15.32818874
  O      5.93999197     10.25372687      8.72941895
  H      5.02900159     10.54525616      8.81131642
  H      6.05324791      9.42168167      9.19468649
  O     23.67646407     19.33808944      5.60762138
  H     24.34597596     18.74900682      5.96305845
  H     23.40354439     19.95968897      6.28639149
  O     33.10952174     27.16870988     32.48868498
  H     32.87183284     27.77902119     33.19055684
  H     33.02897999     26.26674868     32.80739964
  O     21.92071735      0.47872452      6.21906518
  H     22.45338414      1.27727295      6.20540835
  H     21.10518625      0.64565265      6.69723256
  O      4.77799758     24.54524508      4.03946558
  H      5.33011067     24.48958261      4.82283831
  H      4.02493168     25.11327908      4.21787277
  O     29.17518074     32.69963953     32.56486356
  H     28.51091381     33.17028176     33.07363202
  H     29.09354714     31.75675859     32.72583403
  O     32.52405534     13.93771367     30.17043239
  H     32.49810396     12.98139686     30.25033657
  H     33.35408452     14.20323255     29.76775225
  O      5.93298155      6.36182973     27.06176577
  H      6.62730744      5.69897053     27.05039765
  H      5.53580241      6.39492302     27.93512341
  O     35.66534545     35.79307234      7.31932150
  H     36.24579904     35.82152693      8.08343142
  H     35.27982510     36.66070912      7.17726345
  O     36.60974038     13.57117483     24.96139671
  H     36.59512400     14.52148215     25.09668289
  H     35.97444218     13.33443868     24.28172605
  O      9.49434444      3.24036028     36.80181914
  H      8.77984159      2.90518634     37.34839402
  H     10.16733869      3.63536883     37.36096758
  O     30.67240347     30.61760041     32.25846083
  H     31.44583772     31.18466890     32.30127202
  H     30.51023049     30.36513219     31.34656186
  O     15.50513502      4.31473669     25.01812330
  H     15.36904681      4.64327015     24.12641384
  H     15.68693743      3.37258184     24.98825463
  O      0.81198971     38.10006090      3.59408237
  H      0.98924884     38.77935477      4.24886405
  H      0.63379917     38.51178136      2.74535721
  O      5.82608255     19.40423109      0.13983504
  H      5.25474000     18.68716334      0.42440761
  H      6.43064939     19.08423491     -0.53373855
  O     -0.05394055      7.31530837     21.06569970
  H      0.10942467      6.39101781     21.26719107
  H      0.52822037      7.86622243     21.59407681
  O     22.85300046     36.43812258     18.65893330
  H     23.33487539     36.12041557     19.42604400
  H     21.92258991     36.52570348     18.87862806
  O      3.41340331      8.04159184     28.64047756
  H      3.75590687      7.14861078     28.55755513
  H      2.68154403      8.04770270     29.26172201