3055
Energy =      0.00000000 au
 Au     20.62138781     20.12415431     20.20501052
 Au     23.25941748     19.28738199     19.90560935
 Au     21.24163516     17.59038238     21.17677314
 Au     22.16524424     20.02187965     22.51911440
 Au     21.09125841     18.14331624     18.30645010
 Au     22.58568947     22.07756322     20.47840056
 Au     21.92192937     20.91654602     17.87483102
 Au     19.32084890     19.33175841     22.53519010
 Au     18.65708916     18.17074237     19.93162038
 Au     20.15152141     22.10499289     22.10357145
 Au     19.07753394     20.22642517     17.89090477
 Au     20.00114387     22.65792571     19.23324436
 Au     17.98335814     20.96092662     20.50441170
 Au     25.93390506     18.43904537     19.60207042
 Au     21.87045441     15.02159340     22.16196564
 Au     23.73043696     19.91819154     24.86519949
 Au     21.56762267     16.13510273     16.38165133
 Au     24.57713803     24.05796851     20.75556888
 Au     23.24044459     21.71988870     15.51244813
 Au     18.00233639     18.52841150     24.89757305
 Au     19.67516140     24.11320692     24.02837074
 Au     17.51234382     20.33010942     15.54481778
 Au     19.37232808     25.22671415     18.24804826
 Au     15.30887055     21.80926325     20.80795063
 Au     24.02404427     16.60425345     20.90716762
 Au     24.98858115     19.14349784     22.30899076
 Au     23.86700381     17.18168969     17.90965078
 Au     25.42765726     21.29027341     20.17784826
 Au     24.73448435     20.07780930     17.45890663
 Au     22.88138722     17.37129737     23.63647945
 Au     21.75981210     15.40949311     19.23714817
 Au     19.91095414     16.65059624     23.65326748
 Au     19.21778260     15.43813452     20.93433121
 Au     24.28499887     22.05731774     22.90716352
 Au     20.87548544     19.18984517     25.05509284
 Au     21.74296634     22.08596249     24.60434774
 Au     22.47024952     18.88304705     15.78888543
 Au     19.06073541     16.01557332     17.93681212
 Au     19.49981265     18.16234793     15.80567165
 Au     24.03090263     22.99162749     18.05708039
 Au     22.18204565     24.23273409     22.47320736
 Au     22.02500140     24.81017177     19.47569110
 Au     20.36729592     21.05846274     15.35492777
 Au     21.33182890     23.59770838     16.75675109
 Au     17.21187542     17.25667922     22.35294197
 Au     18.77253260     21.36526219     24.62113816
 Au     16.50829093     20.17050194     22.95111388
 Au     16.95778144     18.19098834     17.50285297
 Au     15.81511779     18.95803745     20.23217139
 Au     19.48296881     24.83881667     21.17287346
 Au     17.37577431     23.06662235     22.50036943
 Au     18.36139271     22.87701067     16.77353830
 Au     16.25419644     21.10481327     18.10102735
 Au     17.21873372     23.64405717     19.50285193
 Au     16.66564365     16.19033404     19.65445194
  O     12.46129744     12.38320257      2.01762796
  H     12.83176292     13.23035903      1.75940081
  H     12.76052851     12.15870018      2.90174303
  O      5.94636891     30.98298652     22.35986018
  H      5.92455803     31.47617341     23.18320153
  H      5.18608384     30.39846884     22.31620584
  O      0.24379158     19.41463288     21.76132303
  H      0.93626687     18.76921117     21.60160828
  H     -0.50674105     18.98331940     22.17637659
  O     15.87037118      0.40629972     25.40137793
  H     15.30979104      0.66649427     26.13598579
  H     15.34554389     -0.06182252     24.74791188
  O      9.82185123     39.28392306     20.48827360
  H      9.02495917     38.95499616     20.06593472
  H     10.10269951     40.09378951     20.05602300
  O      5.70530586     36.99440238     37.82948026
  H      6.48258477     36.88393722     38.38196098
  H      4.93579957     37.14068966     38.38451189
  O     38.74399271      7.66088749     39.40999274
  H     38.48946614      7.45361090     38.50785492
  H     38.00906981      7.47879432     40.00018797
  O     16.12911996     18.82763762     29.30178437
  H     15.33634036     18.28663670     29.28132704
  H     16.47346209     18.85781720     30.19739460
  O     35.71633407     23.32086762     39.13538691
  H     35.64001810     22.56483905     39.72206969
  H     35.91810795     24.10621652     39.64930755
  O     25.69626481     10.38710295      4.72346791
  H     25.05554847     10.02999171      5.34278539
  H     25.38038650     11.22802337      4.38483280
  O     27.09393670     10.30247892     36.62787584
  H     26.34100262     10.32163191     37.22312657
  H     27.66698582      9.56794182     36.85954360
  O     33.31154873     25.44973430     15.86337211
  H     33.89181738     26.00234791     15.33468837
  H     33.76468953     25.18684568     16.66783031
  O     37.49285183      3.76279786     14.69322591
  H     38.01997689      3.96483293     13.91674603
  H     36.65167615      3.38871415     14.42104059
  O     39.52300277     23.59213858     33.18068005
  H     39.38661061     23.26689520     34.07354842
  H     40.32016460     23.20125559     32.81551774
  O     39.06794689      5.75611250      5.53790333
  H     38.52795087      5.25283673      4.92412992
  H     39.16513117      5.26450191      6.35672825
  O     30.63375671     31.75883936      1.91293534
  H     30.34358015     31.37521891      2.74373791
  H     31.59049972     31.70732628      1.85302525
  O     38.59532671     36.73642232      2.11360375
  H     38.68303379     35.81110229      1.87341567
  H     38.89982176     37.28613206      1.38786138
  O     11.45006850     15.83698005     22.76125316
  H     11.48937529     15.69357019     21.81283943
  H     12.17751020     15.37603727     23.18547047
  O     12.46168991     11.88958794     35.61994743
  H     12.08491318     11.04573762     35.36003219
  H     12.17062959     12.11068913     36.50764003
  O      0.08402926     29.75575377     13.84828599
  H     -0.77293002     29.60516589     14.25392633
  H      0.77150951     29.67960951     14.51399836
  O     15.32110727     25.97121783     14.60370710
  H     15.77390854     26.68410846     14.14724466
  H     15.90727059     25.58769813     15.26015604
  O     27.43594576     10.72235681     39.92015732
  H     27.03747451     10.09428669     39.31324004
  H     27.52722458     11.57372862     39.48606721
  O      2.31094367     39.23567436     12.17117791
  H      3.14371081     38.83194498     11.91602799
  H      2.33398494     40.17363125     11.96793917
  O     16.34402151     17.02679420      2.22779437
  H     15.57709793     16.45098829      2.27110464
  H     16.89109164     16.77615353      1.47980137
  O      6.37640208     23.18230530     33.16198761
  H      6.75004796     22.65986764     33.87546337
  H      7.05101243     23.76335405     32.80298450
  O     14.75817171     11.96396139     22.52071599
  H     14.97887981     12.79967507     22.93841277
  H     14.77438500     12.06846334     21.56655852
  O      3.49950937     23.79022608     19.68476595
  H      4.06384441     23.81624083     18.90858994
  H      2.58038637     23.85366819     19.41497342
  O     38.94719033      4.81893182     10.32822213
  H     39.18207348      5.28344364     11.13485629
  H     39.74440365      4.50322981      9.89650095
  O      9.30733903      0.11322074     21.35190721
  H      8.40583923     -0.17598312     21.19297560
  H      9.45602836      0.95430664     20.91365387
  O     36.84424444     11.51011363     37.02735321
  H     37.11919435     10.68437480     37.43251730
  H     36.18102230     11.93218937     37.57834184
  O     39.63463233      3.65480416     23.03191061
  H     39.06814439      3.02010018     22.58711596
  H     39.58727020      4.49959501     22.57838526
  O     26.11075072      7.07018902      0.80198342
  H     26.62983000      6.67285080      0.09893360
  H     25.38168849      7.56539197      0.42140189
  O     39.33018554      8.02496868      1.48890928
  H     39.37679944      8.37828839      0.59751020
  H     39.31341670      7.06578847      1.45296292
  O     15.93539290      4.69020890     15.00521433
  H     16.56068351      4.18409830     15.52910719
  H     15.31818154      5.13866830     15.58791005
  O     25.53228737     15.70848357     34.60438348
  H     26.09854997     15.64239295     33.83199840
  H     24.84442984     15.04060206     34.55553362
  O     25.72487236     17.78413321     29.88445896
  H     24.93339010     17.38827285     29.51236971
  H     26.50078446     17.34826307     29.52449003
  O      0.77398468      4.89059044     25.06778785
  H      1.30214791      5.15119505     25.82589659
  H      0.96068318      3.97527300     24.84656928
  O      1.87031190     11.20303373     36.03614818
  H      2.40659839     10.51247183     36.43253318
  H      1.27101709     11.56129803     36.69500509
  O      7.12011999     13.43228590     39.44876721
  H      7.72408394     14.11656851     39.15113512
  H      6.77018806     12.96112942     38.68905725
  O     31.96776108     33.17662394     13.45772434
  H     32.45027744     34.00090676     13.55434629
  H     31.24880081     33.14976634     14.09331446
  O     24.09222345      8.88463783     25.31342639
  H     24.96203376      9.28491398     25.38277359
  H     24.15421487      7.94718299     25.51074716
  O     13.15510094     29.56605112     24.36833611
  H     13.66566395     28.99595229     23.78875631
  H     12.34507439     29.11930543     24.62499790
  O      8.87541511     19.22868573     30.34304123
  H      8.03378014     18.93207086     30.69697653
  H      9.34945821     18.48004177     29.97369670
  O      4.14325943     16.35216019     16.29459796
  H      3.71372947     15.49458851     16.33552264
  H      3.75158017     16.93817187     16.94634767
  O     17.08099317     35.15074523     20.07131743
  H     16.80128778     34.42416185     19.50967566
  H     17.30732844     35.90811291     19.52655459
  O     29.62098060     40.17027044     39.66266829
  H     28.69420625     39.97960690     39.82495425
  H     30.16560472     39.61771290     40.22805730
  O     26.31029569     22.03543924      5.97507645
  H     26.54677276     22.96528145      5.94233400
  H     25.39617456     21.94691381      6.25462219
  O      7.05894934     16.54371503     20.05976814
  H      6.11651458     16.58764045     20.23721472
  H      7.54506323     16.65728286     20.87976549
  O     25.26732122     29.50255490     15.84800539
  H     25.49301199     29.15114378     14.98361317
  H     25.98746100     29.33460828     16.46020849
  O      5.39358761     39.39130183     12.38425112
  H      5.64688151     40.00394990     11.68991363
  H      5.21323364     38.52967714     12.00126895
  O     25.11143168     35.38896330      6.17067868
  H     24.72413549     34.57331236      6.49673879
  H     25.57425041     35.83213125      6.88552202
  O      6.69940297     13.51647013     29.25388580
  H      6.05225427     13.58186004     29.95994722
  H      6.90895300     12.59306022     29.09576263
  O     14.82402864      1.76419995      8.69827075
  H     15.57560720      1.94646639      8.12949258
  H     14.02731042      1.70173939      8.16635088
  O     16.65455275      2.29693257      4.40319329
  H     16.71731829      1.34934351      4.26271033
  H     17.47920805      2.71460751      4.14417343
  O     16.83919029     16.67329418     39.35375557
  H     17.10486382     15.98371968     38.74097129
  H     16.60899958     16.27991535     40.19866109
  O      7.37848798     12.98411605     34.88112353
  H      8.20862067     12.86909605     35.34936504
  H      6.89196609     13.71646636     35.26655767
  O     37.91500996     28.99135146     23.77739983
  H     36.98535194     28.75627246     23.82293931
  H     38.09934117     29.69286346     24.40629006
  O      8.59208033      9.54070193     30.69101151
  H      9.11879270     10.07673665     31.28837309
  H      7.81711896      9.21309709     31.15329924
  O     -0.71556943     20.45256854     31.30613638
  H      0.12705482     20.90918082     31.25055205
  H     -0.81510624     20.06895497     32.18051218
  O     36.11182739     21.47620737      7.87875891
  H     35.53538332     21.00821444      8.48727748
  H     36.84668640     21.85890510      8.36365549
  O     24.69415012     20.47345148      4.79263645
  H     24.32788008     19.63148819      4.51237928
  H     25.14066965     20.89097124      4.05243542
  O     22.23670275     25.73085984     31.53722981
  H     22.18826975     25.72586120     32.49599426
  H     22.78561189     26.46338484     31.24791011
  O     34.89264893      9.66519745     39.52607763
  H     35.71578695      9.46427102     39.97737840
  H     34.15923668      9.56454009     40.13728510
  O     37.05763442      5.29272699     10.86142267
  H     36.42213530      5.69500918     11.45800452
  H     36.95436411      4.33846370     10.87922164
  O      1.22989226     13.66131335     37.99948303
  H      0.41977131     13.79340534     37.50163189
  H      1.27486299     12.75162476     38.30287107
  O     26.23934526     33.10148218     19.32616085
  H     26.19849118     33.96562536     18.91000281
  H     25.99490120     32.42681413     18.68845392
  O     33.02620353     16.94096763     14.81462711
  H     33.87599267     17.13820415     15.21532174
  H     32.34616208     16.93466037     15.49219914
  O      5.77429976      8.31915214      4.19097758
  H      6.63191018      7.93364439      4.38459614
  H      5.28247348      8.43312137      5.00750555
  O     16.85071500     30.53941554      0.36158758
  H     17.31005561     29.82303565      0.80589161
  H     17.47214573     31.24329052      0.16162792
  O     27.37536238      5.69616865     15.87400069
  H     27.10722088      5.26548120     16.68899054
  H     27.60244484      6.61123178     16.05481282
  O      3.91845842     13.22745624      4.02259730
  H      4.66240550     13.44600484      4.58861784
  H      3.60564119     12.34417084      4.23128914
  O     34.89788139     34.79451390      3.09712269
  H     34.82708580     33.92909004      2.68769684
  H     34.19348180     35.36075755      2.77341087
  O     36.19307782     29.51678951      5.18957753
  H     35.97279412     30.12746031      5.89679480
  H     37.11066070     29.24723749      5.27314410
  O      3.76001029      1.49435599     24.29974837
  H      4.63198039      1.40468160     23.90830661
  H      3.78213072      1.18068384     25.20678777
  O     14.79852550     24.46969465     37.24352513
  H     15.29815753     24.55300458     36.42803308
  H     14.95511649     25.23948254     37.79534564
  O      8.32213698     17.01139435      7.68820601
  H      7.81591597     17.02772412      6.87268555
  H      8.18325331     17.83118293      8.16805809
  O      2.00157795     21.57337403     16.76539240
  H      2.29967393     21.25637845     15.90967481
  H      2.56178326     22.29861575     17.05138970
  O     27.85284683     20.55144088     13.98722998
  H     28.25614483     19.68877098     13.86577472
  H     27.41688131     20.58390617     14.84191125
  O      6.38444702     36.91585126     14.53192755
  H      6.63460383     36.08969415     14.95202992
  H      5.67025103     37.32373940     15.02705517
  O      3.04350157      3.32470128     28.55852438
  H      2.54125865      3.61895925     29.32191439
  H      3.89661139      2.99085571     28.84549264
  O      9.65413178     21.24257698     20.11188336
  H      8.82183770     21.25575993     20.59012259
  H     10.38252207     21.22099713     20.73684887
  O     11.86506916     12.63456150     -0.53239566
  H     12.15637239     11.79508401     -0.16905013
  H     11.21218204     13.02726220      0.05166305
  O      7.25748269      8.56695771     33.73414432
  H      6.88135296      8.81785425     32.88728107
  H      7.54375799      9.35398713     34.20343224
  O     25.90431481     13.74615419      5.36295570
  H     25.25222398     14.01850259      6.01272789
  H     26.71579131     13.49392603      5.80959521
  O     38.22095651     35.58907462     24.10137934
  H     37.42827839     35.92999076     24.52213769
  H     38.96625727     35.68161359     24.69934532
  O     24.40602951     20.13452556     29.01775978
  H     23.66896629     20.10543804     28.40335623
  H     24.40244490     19.34251723     29.56026320
  O      8.77455065     11.50294931      9.10136790
  H      9.46957341     11.86210544      8.54499551
  H      8.07609319     11.14331186      8.54962694
  O     20.63134531     20.67748462      3.12030682
  H     19.92454619     20.59967755      2.47534088
  H     21.47333990     20.75322037      2.66543409
  O     14.62941324     13.51568063     15.24300282
  H     14.64577305     14.23254568     14.60469502
  H     14.43793420     12.68982626     14.79255822
  O     16.29898883     20.23075682      4.81832144
  H     16.08544670     19.44160452      5.32154942
  H     15.99534824     21.00674086      5.29503012
  O     18.07795962     18.12141538     32.89763284
  H     18.32816202     18.11196758     31.97085913
  H     17.54496295     18.89927875     33.07775258
  O     21.46536772      0.87931658     10.91187185
  H     21.43528991     -0.02951763     10.60411269
  H     21.76128359      0.89883350     11.82491779
  O     34.51026846     29.74793748      9.94524926
  H     34.70866808     28.99680755     10.50920088
  H     34.37968582     30.52969594     10.48691511
  O     38.71452584     20.92634619     27.07094414
  H     39.63259408     20.84867969     27.34060805
  H     38.35892932     20.05332731     26.88931496
  O     13.74291749     30.48393114      8.93942273
  H     13.00804569     30.55050916      8.32531296
  H     14.55037287     30.29929238      8.45411423
  O     27.86920435     16.71310898     30.91789162
  H     27.19713587     17.12874173     31.46302773
  H     28.06098206     15.83629635     31.25851006
  O     16.49385526     14.43832858     10.83887632
  H     16.58706711     15.12109691     10.17049098
  H     17.02624134     14.66496676     11.60490517
  O      0.38628401      4.35990339     12.15843816
  H      1.01585957      4.29608625     12.88035366
  H     -0.49482951      4.49950638     12.51305060
  O      7.88276806      2.94547786     14.84793643
  H      8.44139060      3.60621297     15.26383301
  H      7.84405844      2.16319947     15.40304191
  O     19.43903210     33.87816535     14.43121753
  H     19.67227897     34.51582765     15.10987995
  H     18.56565283     33.52294525     14.61184792
  O     32.05392686     17.55739390     12.82924689
  H     32.07754705     18.14936196     12.07385566
  H     31.87153079     18.06134087     13.62571982
  O     36.22063754     33.94192929      0.22193015
  H     35.88670655     33.06681407      0.01154135
  H     37.05455061     34.08435014     -0.23183774
  O     32.12274482      2.76286898     34.04062800
  H     32.13473825      3.69375992     34.27493167
  H     32.60301301      2.63284984     33.21963013
  O     38.79996488     29.84877087     14.88099020
  H     39.08996112     28.99360543     15.20686482
  H     39.52835212     30.28464148     14.43258320
  O      5.94012835     23.18703905     30.17541775
  H      5.95346107     23.86038635     30.85954176
  H      5.74798879     22.33318101     30.56989061
  O      4.95364999     24.67090265     32.49041818
  H      4.25277853     25.24904003     32.18035952
  H      5.60579751     25.18671683     32.97025081
  O     30.92386545     36.64579330     22.82069717
  H     30.14328056     37.07819584     22.46669819
  H     31.70118571     36.94871211     22.34570937
  O      1.80344915     23.79461363     34.02163772
  H      2.32529252     24.56038314     33.77088572
  H      1.42339986     23.39462215     33.23603644
  O     34.75026076     16.78539502     34.22306908
  H     34.87946406     16.02530232     33.65108518
  H     34.53797907     17.55511898     33.69009487
  O      2.47804293      1.82441372      3.17281791
  H      3.30832969      2.28414390      3.31728954
  H      2.63400380      0.87723877      3.16116356
  O     33.25041651     20.17930003     24.38388909
  H     33.00339173     20.74019565     23.64498797
  H     32.53471148     20.15802530     25.02335269
  O     36.92748063      4.37369003      4.07939469
  H     37.17144811      3.55894155      3.63412535
  H     36.88334300      5.08784192      3.43936426
  O      0.41843944     14.97429734     18.31789974
  H     -0.09393438     14.17175933     18.19540159
  H      0.61065219     15.09248223     19.25100562
  O      0.79424292     25.32033325     24.16833759
  H      0.01327131     25.33813165     24.72633988
  H      1.46271197     25.90433745     24.53397160
  O     31.51047211     25.36268806     17.61890463
  H     31.93190879     26.18933898     17.86515530
  H     30.74084132     25.21753213     18.17406065
  O     26.45934004      4.31210537     28.47948502
  H     27.29074775      3.93339282     28.77433759
  H     25.86449254      4.40106961     29.22771080
  O     26.20928735      5.17694678     26.31393704
  H     26.96407082      5.44206936     26.84460825
  H     25.40639550      5.26321809     26.83309208
  O     12.13819621     36.36753719     24.65527825
  H     11.70029072     37.12115181     24.25290555
  H     12.57896429     35.85250476     23.97552454
  O     30.27787485     16.30797545     28.68255577
  H     29.68730015     15.69286154     29.12352789
  H     30.76259518     16.81344663     29.33917217
  O     32.70636501     15.27247495      7.96197058
  H     32.10773794     14.92306815      8.62616974
  H     32.68601618     14.70976706      7.18444517
  O     25.00356318     33.24945261     15.96549712
  H     24.82692374     32.95727854     16.86273334
  H     25.52935012     32.58748869     15.51057750
  O      6.85011786     16.64317476     36.95519409
  H      7.74081604     16.28535169     36.97000647
  H      6.52761396     16.66271632     36.05119776
  O     32.90771448     28.74617571      1.51213713
  H     32.16082565     28.75248126      0.90904732
  H     32.59466636     28.60390445      2.40844052
  O     22.34014677     17.78671755     36.62180843
  H     21.92142672     17.29895879     37.33480556
  H     23.28389284     17.84819135     36.78662451
  O      2.68769152     37.64305046      6.03833417
  H      3.48917405     38.15820342      5.92067715
  H      2.36940600     37.34568112      5.18284260
  O     15.57690794     29.18399832     37.42433349
  H     15.59522815     30.07590746     37.06970347
  H     14.72623167     29.02118403     37.83838832
  O      1.35120486     36.55595647      2.85112162
  H      0.58063122     36.68429178      3.40910577
  H      2.12692127     36.42468054      3.40124041
  O     31.55355805      8.46055851     19.48101098
  H     31.65110678      9.25910520     20.00485011
  H     30.73880340      8.01507350     19.72456377
  O     12.06681354      0.97599603     31.47404180
  H     11.17971517      0.85407536     31.82015137
  H     12.25637004      0.29026889     30.82949031
  O     18.04689478      4.42319470     21.22359546
  H     18.52539515      4.84592796     20.50670356
  H     18.64576061      3.86182973     21.72141982
  O     11.54388388      7.27534258     10.10635165
  H     11.51722294      6.48057235      9.56855106
  H     11.12147304      7.99635532      9.63379508
  O     21.85631162     31.97774522     18.95717449
  H     21.44554865     31.34714819     18.36117015
  H     22.58705829     31.55639819     19.41551495
  O     27.18019318     18.50810685      0.54250987
  H     27.84631267     18.69136028      1.20907045
  H     26.32523888     18.39913064      0.96533057
  O     11.47603582     40.04436388      7.93181427
  H     11.41854797     39.08726409      7.97930263
  H     11.59899657     40.40218076      8.81411112
  O     13.84257256     27.62738350     14.57574512
  H     13.11658180     27.81655889     13.97678762
  H     14.19342852     28.45031209     14.92401030
  O     18.61879362      6.24781037     18.05830380
  H     19.44681745      6.54400700     18.44332859
  H     18.27932621      5.50406873     18.56150381
  O     10.38922638     23.24039445      8.50699709
  H     10.36599474     22.56610085      9.18992347
  H     10.75332136     24.05130341      8.86957331
  O     30.49186261     15.36207796      4.39264305
  H     29.81744666     14.72125003      4.62950314
  H     30.23322063     16.23101587      4.70831891
  O     28.80663021     31.33622461     36.27857898
  H     29.43657632     31.21061684     35.56514321
  H     27.91484128     31.21939968     35.94292374
  O     24.21008406     34.19738402     10.75684440
  H     23.93172735     34.98732286     10.28768112
  H     23.47399335     33.85146669     11.26685584
  O     12.40461819     26.90202357     23.50050076
  H     12.67641439     26.96927136     24.41876246
  H     11.75795108     27.58462130     23.30689809
  O     27.29386296     18.91852838     28.25293159
  H     27.94962831     18.65675356     28.90335127
  H     26.49411236     19.20355895     28.70099025
  O      1.12587633     20.34456172     33.70142179
  H      0.74078378     21.21848419     33.79921361
  H      1.74164674     20.34629565     32.96492752
  O     13.55212689     26.17232475     19.09968723
  H     13.67657016     27.04823763     18.72700708
  H     14.26555304     25.59764159     18.81269874
  O     27.04269389     12.29057711     28.31212533
  H     26.59456186     11.86838067     29.04869023
  H     27.85051279     12.70528136     28.62365225
  O     35.79481922     37.08216015     15.87498741
  H     34.89625236     37.41817024     15.83928294
  H     36.21611693     37.20248267     15.02080316
  O     10.14609696     18.67239332     26.45178786
  H     10.14477365     19.01846441     25.55633655
  H      9.87199171     17.75243022     26.44020317
  O     14.42283740      1.20428383     27.84678824
  H     14.18291950      0.52449984     28.48077020
  H     13.67687409      1.79297353     27.71046810
  O     25.92623278     24.11860233     40.12149203
  H     25.03121502     23.92490027     39.83335541
  H     26.01959873     25.06335905     40.26403165
  O     23.78615415      5.10692656     12.93487483
  H     23.59428302      5.31811132     12.01825797
  H     23.37015219      4.27303379     13.16545067
  O     22.25620224     19.81685414     31.55854882
  H     22.92709670     19.68561264     32.23254903
  H     22.67928735     20.00562926     30.71773793
  O     30.95808835     11.60713253     39.45741903
  H     30.32401338     11.27025154     38.82019055
  H     30.56064563     12.32452376     39.95640710
  O      8.53911389      7.93384100      5.44303701
  H      8.70755928      7.14753142      4.91868656
  H      8.49019703      8.69944734      4.86592864
  O     39.88293785     12.44148047     19.25910217
  H     39.30282808     12.04411744     18.60551569
  H     39.56592965     12.22942083     20.14008827
  O     32.26751565     12.48798867      0.22493455
  H     32.73521681     13.32143116      0.31564979
  H     31.35073483     12.60508339      0.48455304
  O     14.30097850      6.77336880     18.41748973
  H     14.31960937      6.20312002     19.18954493
  H     14.36293225      7.69034704     18.69482103
  O     19.59126571     19.76930659      8.04063505
  H     18.90965060     20.04705330      8.65696094
  H     19.37576963     20.08609584      7.16040439
  O      2.73563967     20.87565625     11.55428943
  H      1.95343477     20.32784449     11.45601543
  H      3.27253377     20.54107670     12.27637062
  O     17.58022274     21.15153318      7.33597223
  H     16.93731150     20.76272832      7.93354726
  H     17.57407866     20.67345953      6.50350130
  O     20.90126742     36.79113603     28.98638165
  H     20.12908899     36.36710300     28.60488923
  H     21.33265077     37.33076567     28.31981713
  O     25.45432892     25.64235412      1.78115808
  H     25.20507339     26.29366873      2.44090118
  H     24.79363019     24.94648039      1.75222793
  O     36.88650155     10.70697321     17.80010572
  H     37.62372283     10.52870907     18.38860099
  H     36.06192686     10.51094888     18.25093944
  O     12.47408824     25.18182325     10.06582775
  H     11.54025775     25.22797656     10.28361320
  H     12.76889145     24.26931219     10.11071250
  O      5.40746865     14.51949196     15.84992396
  H      6.05350009     14.36675719     15.15644327
  H      5.78127358     15.10458146     16.51290221
  O      2.78693864     23.79813683      7.56504301
  H      3.63247993     23.61494214      7.14899058
  H      2.60532039     23.12966783      8.22969632
  O     29.34333920     31.69316333     30.51861593
  H     29.96667913     31.57101910     29.79880476
  H     28.57627973     31.13363026     30.37669166
  O      4.37312889     38.52491610     15.97398743
  H      3.78507870     38.15761406     16.63798004
  H      3.85587323     38.86002801     15.23795306
  O     17.93743407     25.06365972     31.09452649
  H     17.47843893     25.88097811     30.88736924
  H     18.10301696     24.57505185     30.28493113
  O     38.56207597     21.59270015     18.29728836
  H     38.38744562     20.94955560     17.60629681
  H     38.13821399     21.31141558     19.11142595
  O     15.45509035     31.46058677     35.37331469
  H     16.34456633     31.45339855     35.73439753
  H     15.06926803     32.33198538     35.48909726