31
Atoms. Timestep: 454
C 51.0264 50.9873 49.9682
C 49.5021 50.9872 49.9792
C 48.9573 50.987 51.4152
C 47.4043 50.9846 51.4129
C 46.8672 50.9852 52.865
C 45.3581 50.9617 52.9075
N 44.8734 50.9809 54.3536
C 44.6372 49.8833 55.1476
C 44.3305 50.3184 56.3665
N 44.3875 51.6901 56.336
C 44.1358 52.6245 57.5273
C 44.727 52.127 55.0909
H 51.4297 50.9873 48.9564
H 51.4589 50.123 50.4592
H 51.4589 51.8516 50.4592
H 49.1305 50.1337 49.4154
H 49.1305 51.8409 49.4154
H 49.3373 51.8421 51.9617
H 49.3379 50.1324 51.9618
H 47.0258 50.1269 50.8736
H 47.0242 51.8405 50.8718
H 47.2517 51.8512 53.4061
H 47.272 50.1349 53.4156
H 44.9211 50.0864 52.4633
H 44.9057 51.8204 52.4389
H 44.7365 48.9043 54.7354
H 44.0857 49.8133 57.2796
H 43.9575 52.0149 58.3959
H 43.2775 53.224 57.2641
H 45.0248 53.2314 57.6175
H 44.8741 53.1221 54.7493
