3005
Energy =      0.00000000 au
  O     -1.38164179    -15.30425496      4.70684173
  H     -1.50332827    -16.05367780      5.29434307
  H     -0.45789227    -15.24287528      4.45283512
  O    -12.72719640      0.00354961      3.64598845
  H    -13.11934674     -0.82986925      3.91660093
  H    -13.15952339      0.31706970      2.84824254
  O     12.56139017     12.37608188     -5.29179411
  H     13.12065455     13.04649566     -5.69100423
  H     12.13698275     11.86054843     -5.98150680
  O      9.62311466     -7.14491165      2.44847867
  H      9.98680934     -7.83525597      1.88923731
  H     10.22098809     -6.39390773      2.46033130
  O     17.25314094      2.20455369      4.85856105
  H     16.74858247      2.79933919      4.29887277
  H     18.14568849      2.12122106      4.51502861
  O     -0.98279863    -15.11101846     -7.44355830
  H     -0.21948804    -15.68657698     -7.35586942
  H     -1.77109692    -15.57840958     -7.15767136
  O     -3.51882242     10.93510349      1.27083102
  H     -3.90569739     11.77106584      1.54119137
  H     -3.22219376     10.45351276      2.04651253
  O     10.86534732     -4.33898767      1.99951424
  H     11.72468195     -4.12625475      1.62818056
  H     10.76234287     -3.89458350      2.84420059
  O     -1.54753210     14.76948315     -2.60697721
  H     -1.04046487     15.46463064     -3.03271516
  H     -1.66403406     14.98096170     -1.67783561
  O     -0.71238125    -24.13059766      2.45104638
  H      0.12258322    -24.05369050      2.91850720
  H     -0.61388980    -24.74216302      1.71763840
  O     -1.89648395     13.08956273      3.57444458
  H     -2.49918939     12.81039222      2.88132844
  H     -1.04042503     13.29450579      3.19134999
  O     12.58653201     -8.47180886      4.94967632
  H     12.17607947     -7.65894043      5.25360663
  H     13.20463948     -8.27369359      4.24236202
  O     -4.60295336     -4.60888443      8.33767424
  H     -4.98770276     -5.27446913      7.76272650
  H     -3.85284016     -4.98389205      8.80489954
  O     11.58564550    -14.49975476     -0.95213577
  H     12.17692744    -15.14197022     -0.55270498
  H     10.97204323    -14.94972417     -1.53747310
  O     -4.82568514      6.21920533      8.24552008
  H     -4.48717707      5.47605885      7.74079679
  H     -5.28966627      6.82056536      7.65841905
  O      0.03030270     -4.38852103      7.69548151
  H      0.45954840     -4.99495084      8.30342148
  H     -0.43326105     -3.71076490      8.19282975
  O      9.01857475     19.23670938      1.65309139
  H      8.56172168     19.71906095      0.96011069
  H      9.27309783     19.84383328      2.35181778
  O     -3.92264937      1.20097249     -4.37534833
  H     -3.66684928      0.48102528     -4.95659038
  H     -4.12440628      1.97963719     -4.89934779
  O     -7.66734022     -1.03783394      5.13708321
  H     -7.56894913     -1.01847351      6.09183154
  H     -7.29619358     -0.23662372      4.76037065
  O      8.51271536    -14.48634679     -2.51903492
  H      8.70037213    -13.94828057     -1.74646151
  H      7.56279927    -14.54898936     -2.64287086
  O    -15.97755408      3.52003514      2.02250035
  H    -16.72885072      2.95040336      1.84174360
  H    -16.28535548      4.41500410      2.18340048
  O      1.07097203      7.10433657     -6.98910758
  H      0.74194213      7.83906667     -6.46612478
  H      2.02118626      7.02964533     -6.87459061
  O     -5.05847008     11.23106878     -3.95575551
  H     -4.79488470     10.56882383     -3.31267357
  H     -5.97699264     11.09392814     -4.19887844
  O      0.81328721    -17.63103909     -0.97820757
  H      1.19430896    -17.19013129     -1.74111172
  H      0.72726524    -17.00458754     -0.25587893
  O      0.81640697    -10.39723590      2.43541585
  H      1.72400884    -10.09778060      2.52588892
  H      0.47972164    -10.66354326      3.29409122
  O     -9.49829047    -12.23996964      4.68896479
  H     -9.06621464    -11.51728642      4.22783633
  H     -9.60353110    -12.98397389      4.09148500
  O     -3.45596943     -6.61313323    -10.30618701
  H     -3.66770161     -6.80717229     -9.39015298
  H     -3.29546615     -5.67187479    -10.40554115
  O      5.38488095    -10.92049976      8.39653639
  H      6.17826827    -11.21929208      7.94613689
  H      5.27003017    -11.41972494      9.20843757
  O     -6.41768913     10.36556503     -1.44524018
  H     -6.14000213     11.16152426     -1.90452097
  H     -6.67480015      9.69885137     -2.08632272
  O     -6.21047927     12.32512918      3.12805724
  H     -6.64248403     12.58469865      3.94512247
  H     -5.41290114     11.83061079      3.33034591
  O     12.73631567     11.76954309      3.50486829
  H     11.93319074     12.05601708      3.06382066
  H     12.53230308     11.51281929      4.40712754
  O    -13.68767747      5.58468158      0.53786633
  H    -14.26331245      5.37201158     -0.20038555
  H    -14.18403874      5.52884154      1.35768788
  O     13.01906554     -7.94542179     -2.30542479
  H     13.57442674     -8.43219789     -2.91879496
  H     12.45388333     -7.34256961     -2.79403336
  O     -3.50381576     -7.96926370     -2.95143136
  H     -2.75240382     -7.93808401     -2.35476736
  H     -4.29860441     -7.70974876     -2.47966553
  O     17.31420273      1.09567121     -2.75243646
  H     18.15134680      0.93271501     -3.19315755
  H     16.70072825      1.50108809     -3.36959627
  O     -3.56216981    -17.93960107      5.93668522
  H     -4.32395974    -18.17138857      5.40044771
  H     -2.82767748    -17.70409207      5.36514649
  O      7.92416361      9.18016947      2.97274500
  H      7.88376006      8.40353911      2.40988371
  H      7.09389713      9.27738120      3.44476986
  O    -16.21944996     -3.65392510      3.31574385
  H    -17.14828114     -3.89617357      3.32946650
  H    -15.88592654     -3.71368381      2.41752838
  O     -5.71596064    -17.61761431     -3.15315587
  H     -6.49731829    -17.49286305     -3.69677095
  H     -4.95083147    -17.75058613     -3.71751023
  O     10.66910383      0.37339622      0.44516728
  H     10.87462848      0.07939929      1.33563089
  H      9.88540274      0.92754013      0.46352863
  O     -1.08442797     18.97298748     -1.50221366
  H     -1.12886079     19.66843123     -2.16250430
  H     -0.30215294     19.09589102     -0.95949780
  O    -16.09903653     -5.22221812     -0.36560048
  H    -16.75985711     -5.71388561     -0.85873255
  H    -15.97904320     -4.35742896     -0.76477627
  O     10.12753674     -6.74044607     -0.56711375
  H     10.46266936     -6.10588952      0.07055709
  H      9.74850249     -7.49084564     -0.10361237
  O      3.01201105     -9.93852010      6.79130816
  H      3.70071141     -9.72096407      7.42373301
  H      2.15452333     -9.88208462      7.21924490
  O    -19.10386606     -3.13606307     -0.67969085
  H    -18.63370504     -3.42171081     -1.46642714
  H    -19.81488349     -3.75248908     -0.48976139
  O     -5.59432073      8.31311179      5.42399616
  H     -5.97798141      8.50178683      6.28353453
  H     -5.26523135      7.41137507      5.41091644
  O      2.28578300    -16.17320073      5.06374835
  H      2.86747110    -15.47846505      5.38089388
  H      1.39648205    -15.82573770      4.96368208
  O    -14.99760500      5.21101398      6.01303692
  H    -14.52924077      6.04056898      6.13166853
  H    -15.81969470      5.37140095      5.54394786
  O     -6.92380085      4.81198968      4.62055790
  H     -7.85864453      4.88206336      4.41378031
  H     -6.42673369      4.66742692      3.81208659
  O     -5.33081442      6.83214271     -4.69086566
  H     -6.03521639      6.17992291     -4.69608083
  H     -4.62338069      6.53517143     -4.11385129
  O     13.54644192      8.47028906     -0.83668815
  H     13.13578413      8.22453487     -0.00448321
  H     13.93405809      7.69257179     -1.24474398
  O     -5.71537517      7.77650427     -1.15735931
  H     -5.15916571      8.46113935     -1.53618097
  H     -5.28837661      6.92295494     -1.26092462
  O      0.56287841      2.87443434      3.45431422
  H      0.76219685      1.95242623      3.63256461
  H      0.58681425      3.03019008      2.50733627
  O     10.13954049     11.94511410     -4.75036935
  H     10.61061780     12.73593125     -5.02293935
  H     10.19114037     11.28558864     -5.44604429
  O      9.55747417     17.28590983     -1.57501288
  H     10.01501600     17.23800083     -2.41760424
  H      8.79713390     16.70001423     -1.58946997
  O     15.27654464    -11.58891167      3.41064266
  H     15.81162286    -12.25829668      2.97795917
  H     14.50988130    -11.39123752      2.86773175
  O     -8.21007159    -11.79930345      2.33698800
  H     -9.02456853    -11.58489203      1.87631188
  H     -7.59468309    -12.21030570      1.72545374
  O     13.53688260    -17.46341053      1.65025728
  H     13.26807492    -18.32118245      1.98725843
  H     14.06591413    -17.58182190      0.85797930
  O     -6.08932877    -12.45517839     -3.49654030
  H     -5.28455976    -12.52501391     -2.97782087
  H     -6.84947081    -12.45462301     -2.91020953
  O     11.04369110      3.08256944     -3.50499405
  H     11.39417917      3.48192550     -2.70544865
  H     11.74144107      3.01246737     -4.16060879
  O      5.78907526      9.75086048     -1.40999716
  H      5.38666556      9.28486938     -2.14655586
  H      6.44868851     10.36476885     -1.74109665
  O      3.22792246     -9.54787024      0.84925713
  H      3.53893462     -9.39364296     -0.04577661
  H      2.50087449     -8.95168236      1.04306442
  O     -5.52656397    -14.48259911      5.54213241
  H     -4.82388905    -14.06194027      5.04123910
  H     -6.08887431    -14.98354782      4.94676910
  O     -0.40873804     23.34751716     -1.22955419
  H     -0.17624039     22.60524838     -0.66689807
  H     -0.70520198     24.08115778     -0.68597294
  O      9.61403841    -17.12054370     -1.63110475
  H      9.42537226    -16.28029494     -2.05535363
  H      9.52794278    -17.02562622     -0.67969621
  O     -0.77809507     17.29305906      0.69067048
  H     -0.25006955     18.02820487      1.01059188
  H     -1.45008787     17.61959343      0.08784300
  O     -7.88082798     -6.79351904      7.88072661
  H     -7.34876437     -6.11886507      7.45253233
  H     -7.63848177     -6.85225003      8.80777515
  O      5.68493692      2.88286769     -2.60370939
  H      5.30894198      2.92120431     -3.48618212
  H      4.98825137      2.71213045     -1.96568272
  O      9.86045152      6.98972679     -8.87003513
  H      9.87892737      7.66400915     -8.18695245
  H     10.15110562      6.15225446     -8.50157848
  O     -5.54056628      4.28157296      8.95085547
  H     -6.25788189      4.86254411      8.68716843
  H     -5.74584300      3.88412391      9.80026451
  O     16.94163423     13.25317836      2.60733880
  H     17.43484003     12.48887331      2.30044169
  H     16.88929263     13.23705890      3.56577530
  O      7.67797462      2.86146638     -2.38046167
  H      8.35598578      3.46371422     -2.06550387
  H      7.39398271      2.29374493     -1.66029436
  O      3.24854019     17.69227813      6.75768017
  H      2.80100550     18.53573498      6.65821545
  H      3.29210891     17.25029777      5.90658961
  O      9.24641896    -10.81958387     -3.47409008
  H      9.67533617    -11.52553644     -2.98494696
  H      9.18770399    -11.06183708     -4.40116394
  O      1.99672201    -21.83168141     -0.00696839
  H      1.40866631    -21.97365388     -0.75237721
  H      1.48922391    -21.52355105      0.74741968
  O      7.54863937    -20.29723172      3.81355996
  H      7.46785566    -20.35768116      2.85887684
  H      7.01401485    -19.56746321      4.13483017
  O     -4.51248469     -3.24118620      6.10722988
  H     -3.55906099     -3.35318821      6.11345919
  H     -4.82192540     -3.07888357      7.00137992
  O      8.38189935     12.99531772     -5.87950608
  H      9.12774027     12.70453067     -6.40937797
  H      8.22365931     12.36304416     -5.17467260
  O     14.79126836     -4.93782779      2.99500999
  H     15.16012372     -5.32286461      2.19670405
  H     15.46964356     -4.43433018      3.45096751
  O     15.17227549     -8.83875368      3.53129345
  H     14.47808818     -9.41786750      3.20829009
  H     15.24515938     -8.92654942      4.48448800
  O     -8.53947968    -17.00056285     -2.14384004
  H     -8.26450297    -16.80607802     -3.04281916
  H     -8.58914108    -16.18471646     -1.64032400
  O     -9.37064517     11.47611867     -4.25225544
  H     -8.93753189     12.33135934     -4.20149826
  H    -10.15512110     11.54626328     -4.80114272
  O      5.25167510    -16.60562914      5.33705351
  H      5.94110640    -16.61891269      4.66914031
  H      4.39373375    -16.68472576      4.91363838
  O     -3.89498779      5.93774538      3.58800253
  H     -3.00757309      5.72036183      3.29331703
  H     -4.30573819      6.53253673      2.95625308
  O    -16.04614144      7.06133909     -2.28281037
  H    -15.30767104      6.47104336     -2.11603983
  H    -16.23890324      7.56561676     -1.48899243
  O    -14.25685616    -10.64064416     -1.45369017
  H    -13.48236877    -10.29943406     -1.90684020
  H    -14.93187665    -10.86585255     -2.09807245
  O     -3.81877111     -2.05786935     -6.11276930
  H     -4.62971948     -1.82747593     -5.65355081
  H     -3.08026786     -2.01299233     -5.50105122
  O     -6.63710240    -16.41284776     -5.38178276
  H     -6.15462269    -15.59366038     -5.51499449
  H     -7.23611684    -16.55535275     -6.11831112
  O     -0.14167516     -3.55864273      4.29685691
  H     -0.75852580     -2.85820414      4.52153685
  H      0.24986229     -3.91054494      5.09964160
  O    -10.86335970      6.89298012     -7.10380213
  H    -10.55646680      6.88971389     -8.01342078
  H    -10.13357134      6.67722327     -6.51860308
  O     12.36408524     -9.78528159      0.89045624
  H     13.14914567    -10.17807629      1.27903372
  H     11.63042473     -9.86044708      1.50502308
  O      3.74482463      3.01065320      8.85609345
  H      3.58094671      2.80581603      7.93262945
  H      3.21676826      3.76955406      9.11460062
  O    -10.60555579      5.99432165     -3.01065155
  H    -10.11001610      5.96401315     -3.83230951
  H    -10.93393259      5.11671301     -2.80191305
  O      6.91565571     11.92114544      7.19908392
  H      7.10218243     11.88918838      6.25792159
  H      7.08466609     11.06018734      7.58868198
  O      1.82552290      0.23009957      5.30950750
  H      1.75346964     -0.13784535      6.19326362
  H      1.62155955      1.16783042      5.33519411
  O     12.09301397     -2.58109543      5.13885950
  H     12.77367443     -2.97452619      5.68978016
  H     11.61969048     -3.27303149      4.67111024
  O     -5.57425991     -4.93344017      2.34956651
  H     -6.35944177     -4.74885608      2.87016056
  H     -4.89066235     -5.29554262      2.91805239
  O     14.35377192     -0.90961857      3.31351641
  H     14.62781639     -0.06918132      2.93913042
  H     13.73042392     -1.33631084      2.72108837
  O     17.69349890      3.26118582     -5.06112690
  H     18.50360151      3.07557102     -4.58062622
  H     17.04994606      3.65184749     -4.46545651
  O     13.70663672     17.56369422      2.63988332
  H     12.74854030     17.57663938      2.69890596
  H     13.97064631     17.54652692      1.71705927
  O      8.47226177      2.65911862      0.49972249
  H      7.80865413      3.20495796      0.07160530
  H      9.33476947      2.84891367      0.12334726
  O    -13.64015347     16.98203875     -3.08345590
  H    -13.77142930     16.45140925     -2.29427975
  H    -12.93497610     16.60127948     -3.61198902
  O     -3.54246864     18.51826380     -0.71896130
  H     -3.36464611     18.21489337      0.17431667
  H     -4.15332492     19.25829106     -0.69042595
  O     11.18173896     -8.97166774      3.61539564
  H     10.31867470     -9.27366896      3.32296557
  H     11.58904858     -8.44634608      2.92276585
  O      1.80002004     13.74139864      4.56378272
  H      1.81878750     13.66083039      5.52021178
  H      0.88905743     13.75599919      4.26123693
  O      6.54642059      3.15098412      3.07450077
  H      6.11823030      3.33970271      2.23626549
  H      5.87954902      2.98360743      3.74447641
  O      4.55125077    -15.66241041      0.01202817
  H      4.18503719    -15.38492933     -0.83087862
  H      4.69841138    -16.61099752      0.00079228
  O     -8.79594426     -5.43794084      5.33287978
  H     -8.58758478     -4.92488075      4.54868868
  H     -8.67459651     -6.37181017      5.14643193
  O     15.91422848      9.56005927     -2.89115534
  H     16.14605240      9.30766954     -3.78790341
  H     14.96070392      9.52627660     -2.78509101
  O     -1.16720183     -1.98085881     -6.32490456
  H     -0.30342611     -2.14802083     -6.70902482
  H     -1.79571440     -1.78356392     -7.02322160
  O      2.08279962     17.76015453     -5.10909269
  H      3.01484032     17.99015417     -5.10853821
  H      1.84385398     17.38884101     -4.25666600
  O      2.43876013     -7.76418620     -1.75882796
  H      2.94863658     -8.57707857     -1.78767227
  H      2.29121604     -7.44656810     -2.65266770
  O     13.55480688     -9.88066415     -1.36112980
  H     13.67855953     -9.10421296     -0.81030421
  H     14.32351221    -10.00037291     -1.92359041
  O    -16.99735838     -9.76285851      0.14829291
  H    -17.67625335    -10.35702618      0.47641849
  H    -16.60515043    -10.13207059     -0.64634876
  O     18.97161732      8.65928429     -1.76834089
  H     18.33452168      8.13840631     -1.27397738
  H     18.70250311      8.70555714     -2.68868667
  O      5.16242534    -20.64569601      2.34571862
  H      5.70016364    -19.94651857      1.96678798
  H      5.58469334    -20.97969669      3.14053513
  O    -13.49934797     -7.08288634     -0.61208311
  H    -13.35297310     -6.91040551     -1.54504868
  H    -13.39888737     -8.02201596     -0.44020169
  O    -19.01100412     -8.75435953      2.16385231
  H    -18.33142092     -8.69641700      1.48827156
  H    -19.61255181     -9.47205892      1.95255169
  O    -13.44212969     -8.86501831      2.54735476
  H    -14.26095525     -8.54290067      2.16347336
  H    -12.78778112     -8.98212113      1.85474024
  O     15.07305331     15.76335015      0.08778877
  H     14.58945180     14.98069809      0.36198820
  H     14.58004224     16.22112638     -0.59703312
  O     -1.49391165      5.75767639     -8.90914564
  H     -2.37504025      5.38303408     -8.83946398
  H     -1.52078825      6.53820033     -9.46741083
  O     -6.42002558    -23.14788544     -0.08619824
  H     -5.95789631    -22.44225092     -0.54458287
  H     -6.89251987    -23.68841900     -0.72351498
  O     -9.27113790      3.92910428      5.46162620
  H     -9.77870254      4.49655287      4.87683543
  H     -8.95450677      3.16613282      4.97252571
  O    -14.99539839      0.50063125     -4.62796844
  H    -15.65289251      0.61319606     -5.31835285
  H    -14.14451651      0.81594446     -4.94130152
  O     -0.39714700    -19.11847112      1.71270498
  H      0.40639437    -19.35816533      2.18011054
  H     -1.14847086    -19.19907077      2.30483347
  O     16.02430509      3.31433041      1.66087222
  H     16.90999799      3.68236483      1.61965627
  H     15.75259701      3.23504989      2.57819949
  O      1.54202774     15.65210743      5.81587833
  H      2.28545936     15.58166427      5.21259797
  H      1.39650231     16.57446058      6.03878417
  O     -0.52187649     22.30567741      4.07972654
  H     -0.25413734     21.54821492      3.55421124
  H     -0.47628929     23.10030882      3.54299313
  O     -3.23575009    -16.23190121      7.56292517
  H     -3.96283501    -15.98803953      6.98544877
  H     -2.49532526    -16.53805720      7.03411558
  O    -13.42678453     14.69234809      2.41260973
  H    -14.30147144     14.29780627      2.38329138
  H    -13.04604540     14.56321186      3.28436747
  O     -7.83022250    -20.87394432     -0.80693322
  H     -8.57154645    -20.56296072     -0.28221615
  H     -7.52954260    -20.16963333     -1.38584395
  O      2.35853986    -17.05777755     -3.96542459
  H      2.43493101    -16.44115530     -3.23361765
  H      3.21652848    -17.16933189     -4.38137068
  O     -1.85359605     -6.08227328      2.36539801
  H     -2.20036664     -5.57928231      3.10590476
  H     -1.05290853     -5.66385820      2.04070075
  O     -2.93627120      3.19733302     -2.52933568
  H     -2.74442820      3.99537477     -2.03141435
  H     -3.73988448      3.32315351     -3.03921303
  O     10.77273998      5.85503050     -2.49278806
  H     10.09134747      5.68227247     -3.14659148
  H     11.54203060      6.23410694     -2.92417304
  O     -6.90767572      6.20520652      6.36563393
  H     -7.14996676      6.15002879      7.29291516
  H     -6.10424214      5.70215399      6.21386884
  O      7.70913475     -0.41081421     -7.27237480
  H      8.02675854     -0.51621955     -6.37259436
  H      7.92634680      0.46947352     -7.58783073
  O      2.71351890    -10.44698467      4.30216974
  H      3.39861115    -11.11236093      4.20458367
  H      2.07809396    -10.73556985      4.96137665
  O     -9.65768585      1.50282006     -6.12769779
  H     -9.88433530      2.06741530     -6.87030283
  H     -9.19943887      0.72199369     -6.44694675
  O     -2.91268527     11.45988558     -8.63403022
  H     -3.85105254     11.64158008     -8.54428630
  H     -2.53398285     11.29455835     -7.76751340
  O      1.71791742    -11.46021676     -0.10048599
  H      1.85203442    -11.76279903      0.80065584
  H      1.70839516    -10.50042705     -0.11817903
  O      4.63641419     -8.54277277      4.79962253
  H      4.67069074     -8.63801517      5.75427116
  H      4.51337768     -9.40495971      4.39577145
  O    -11.85189638    -11.95010894      6.35526162
  H    -10.93809274    -11.91958425      6.06263360
  H    -12.14687448    -11.06407811      6.57783136
  O     -6.49701803     -4.52098733      8.99341496
  H     -7.23320082     -4.97437177      9.41064086
  H     -6.07826445     -3.93679156      9.62978022
  O     -9.75451142     -7.64674029      1.61647853
  H    -10.54240776     -7.44261786      2.12554964
  H     -9.06179590     -7.01809209      1.83222528
  O     14.62383750      9.53794854      4.66761723
  H     14.77586834      8.59264514      4.59770224
  H     13.68677934      9.72019022      4.56607912
  O     13.86892861     -6.51473488     -1.18465695
  H     13.71350107     -5.56753327     -1.20051244
  H     13.77220700     -6.84036044     -0.28676335
  O     -3.11833951      1.54468180      2.19758118
  H     -3.78806637      1.08321967      1.68756291
  H     -3.29422749      1.43113067      3.13447475
  O     -6.81857250     -7.30832304      1.12858576
  H     -6.18003934     -6.87598983      0.55677862
  H     -7.02307398     -6.73550637      1.87132408
  O     -1.05906234     11.72238787      1.87454973
  H     -1.60273533     11.57563531      1.09706444
  H     -0.13873941     11.79866972      1.61227738
  O     10.35063575      6.56303270      8.53554237
  H      9.69402377      6.00904024      8.10711144
  H     10.72285350      7.17297754      7.89443299
  O     -4.97847925     -9.10800668      5.77161764
  H     -4.16963820     -9.42122877      6.18303968
  H     -5.63221132     -8.92308234      6.44987818
  O     -3.82357552     -3.74959997     -0.09522120
  H     -4.64418441     -3.56873078      0.36898499
  H     -3.09991786     -3.29824920      0.34546243
  O     -5.94065915     -2.21865027     -8.21845011
  H     -5.00609812     -2.43796625     -8.20864267
  H     -6.44550215     -2.98036034     -8.51261218
  O     16.90057109      9.80159447      3.54904708
  H     16.75447034      9.07896675      2.93417818
  H     17.71226124     10.25940485      3.31846358
  O     -2.89888030     10.74388190     -1.42183231
  H     -3.75050724     11.17263883     -1.31003314
  H     -2.50540897     10.58344936     -0.56099451
  O      9.83259143     -2.29425441      1.94277408
  H      9.50945083     -1.62687315      1.33303445
  H      9.09458632     -2.66642432      2.43107524
  O     -4.31648522     -7.91471240     -7.14888579
  H     -4.60554574     -8.80113284     -7.37758389
  H     -3.50000268     -7.71433522     -7.61235668
  O     -1.92445698    -13.16167510      1.91283318
  H     -2.62156021    -13.57130969      2.43037216
  H     -1.30223132    -12.72696812      2.50059594
  O      7.78938822    -19.06175142     -0.73114292
  H      7.31223180    -19.50723752     -1.43503488
  H      7.76073409    -18.11303880     -0.87509881
  O    -10.92616422     18.96015700      1.74129433
  H    -10.62343686     19.82000816      1.44027586
  H    -11.44143203     18.54111701      1.04810996
  O     -3.31992523     21.51808758      4.38386217
  H     -3.60706665     20.71589072      3.94156136
  H     -2.43802451     21.38922916      4.74057863
  O     -3.59613264     17.57386419     -4.27303122
  H     -3.73246230     18.30976247     -4.87425328
  H     -3.47377237     16.76632628     -4.77752153
  O     14.76853311     -0.07424352     -6.78180615
  H     15.21651026      0.61948693     -7.27135139
  H     15.05873911     -0.93133121     -7.10240119
  O      0.57296797     -6.45648670      4.48776675
  H     -0.24047129     -5.95123052      4.41970230
  H      1.00092701     -6.26355670      5.32516097
  O    -17.23044303     -1.14319646     -3.50282670
  H    -17.83950541     -1.56936070     -4.11030268
  H    -16.47792897     -1.71861549     -3.34721330
  O      5.98371916     -7.03309711     -5.01892088
  H      6.52226474     -6.28668060     -5.29174143
  H      6.06998286     -7.74199108     -5.66050323
  O     -8.41242223      8.96988018      0.64133751
  H     -8.69812614      9.71729818      1.17175208
  H     -8.22528917      8.22295623      1.21464879
  O      0.59415016      3.93670551      9.83615398
  H      1.43200030      4.12738154     10.26423084
  H      0.65793801      3.10336312      9.36384944
  O      7.91309980     12.25350831     -2.83571974
  H      7.85752791     11.29535320     -2.85694608
  H      7.80649713     12.56075302     -1.93248303
  O     13.59446829     -8.76839332      7.06271687
  H     14.11692807     -8.35397104      6.37214468
  H     12.69921374     -8.42266812      7.03835753
  O    -11.28809301     -2.82877950     -4.60265145
  H    -11.76752084     -3.14131118     -5.37341270
  H    -10.36386177     -3.07732633     -4.67762542
  O      9.63468783    -20.22136707      3.93767425
  H      9.61253853    -21.18101516      3.92407389
  H     10.24143964    -19.90525502      3.26423129
  O     -1.75746948      8.69343431     -8.20802519
  H     -2.27413890      7.93381776     -7.92939389
  H     -1.52945715      8.60289542     -9.13614861
  O     16.07111538    -11.80908267     -1.76245906
  H     15.74673853    -12.46026030     -2.38883542
  H     16.02878499    -12.17020659     -0.87397852
  O      5.12049558     -8.57408824     -3.24390857
  H      5.18981623     -8.77142325     -4.18084696
  H      5.93188356     -8.15845897     -2.94307329
  O     19.13866702      0.99079890     -0.86658458
  H     18.97831170      1.93726956     -0.85767107
  H     18.33182010      0.53136145     -1.11054214
  O    -16.69903240     -0.41692135      5.41808208
  H    -15.74119078     -0.35881692      5.44571012
  H    -17.07923086      0.34640552      5.85896894
  O     -6.80501465     -2.33228892     -1.12072020
  H     -5.97543578     -2.47629080     -0.65956691
  H     -7.51976601     -2.27068897     -0.48280488
  O     11.45597196      7.76708877      5.48815122
  H     11.44087065      8.53855245      6.05930422
  H     10.95026814      7.05863739      5.89307132
  O     -1.38644703      5.49442174     -1.40901818
  H     -1.06198982      5.07665731     -2.21014264
  H     -0.74931598      6.14574244     -1.10661880
  O     13.96380265      3.91172055     -0.23675103
  H     13.41910167      3.21439831      0.13559631
  H     14.70991862      4.07988163      0.34344964
  O      6.30063127     -3.68475931     -3.02301102
  H      6.16888780     -3.82532122     -2.08253985
  H      6.95275327     -4.30779783     -3.35188773
  O     -9.03141217     -1.65595188      8.27468581
  H     -9.14244139     -0.80785633      8.71058310
  H     -9.05985395     -1.53326456      7.32298266
  O      4.99997651      0.46566851      3.31960701
  H      4.70204373      1.23949901      3.80336566
  H      5.12289230      0.69337222      2.39513812
  O    -14.25165357     -0.76511043      7.61706259
  H    -13.32073324     -0.69237737      7.39413377
  H    -14.70313407     -1.27950693      6.94388981
  O     18.02985274    -10.72235378      1.42320623
  H     18.14767753    -10.86534992      2.36515603
  H     17.09269018    -10.71290771      1.21527088
  O     -1.42566387    -23.83900692     -4.48619127
  H     -2.02131333    -23.97801460     -3.74627331
  H     -0.59956275    -24.30021697     -4.32358059
  O     -3.03611155    -16.67122167     -5.71216100