3005
Energy =      0.00000000 au
  O     -9.20387829     18.16751058      4.23043882
  H     -9.32027530     17.22589349      4.37675692
  H     -9.83870599     18.65505135      4.76043675
  O     -3.99647519    -13.64229569      0.19969359
  H     -4.29441987    -13.35091061     -0.66513223
  H     -4.24390096    -12.99096423      0.86010848
  O      7.43059797      1.61209309     -2.57488492
  H      7.69042797      1.12251671     -1.79104607
  H      6.67656452      2.16953585     -2.36923686
  O    -16.40838235     -1.49423058      6.21037076
  H    -15.73457454     -2.14499703      6.00040396
  H    -16.45466835     -1.37646322      7.16199488
  O    -16.28430858      2.65082197     -3.47834820
  H    -16.97442177      1.99570039     -3.60546825
  H    -16.46185710      3.41484018     -4.03183957
  O     11.66259572     20.86410570      1.33215903
  H     12.28568253     20.38480382      0.78113041
  H     11.05269518     21.35340059      0.77519238
  O    -14.41916421     11.94496628     -1.23407294
  H    -14.61631062     11.11859085     -1.68110420
  H    -14.13639729     11.76332637     -0.33482336
  O     15.61704863      1.36214527     -2.52898695
  H     16.55481328      1.15819851     -2.50442724
  H     15.28938318      1.47178449     -1.63332262
  O      3.93029758      9.58174977     -2.02583180
  H      3.17595257      9.89086711     -2.53279342
  H      4.45025252      8.97772017     -2.56099076
  O     -4.17318634     -7.98927498     -1.77303864
  H     -3.42579703     -7.74021544     -2.32165378
  H     -4.87571139     -7.34317091     -1.87603423
  O      0.34858528     -1.22066101      6.25160994
  H      0.81595865     -0.87139871      7.01396023
  H      0.18987799     -2.15932270      6.37540909
  O     -0.11730455     14.33364910      3.35211680
  H     -0.06748305     13.70945939      2.62444584
  H      0.68418116     14.27790075      3.87758115
  O      5.53053783    -11.50907942      2.55538467
  H      5.12264191    -10.65367384      2.40208036
  H      5.78380014    -11.89851507      1.71526677
  O      0.91077196     10.44765609      5.74444308
  H      0.55491548      9.66839674      6.17771092
  H      1.61556838     10.81858756      6.28042054
  O     -2.22123252     -1.41275082      0.98371274
  H     -2.92318526     -1.65961231      1.59027828
  H     -2.07345619     -2.12528090      0.35756336
  O    -12.02398797     13.60767640     -3.91626895
  H    -12.26166665     12.69019087     -3.76353012
  H    -12.63024225     13.99412638     -4.55243887
  O      0.17942332    -15.28526683     -2.28260003
  H      1.02873059    -14.93583619     -2.56219867
  H     -0.48098218    -14.58945325     -2.31876694
  O      6.16130449     -0.98785394      2.62924899
  H      6.34963644     -0.04768444      2.67628507
  H      5.21112822     -1.12395262      2.61368618
  O     12.37315609      7.69991853     -5.67479371
  H     12.22063256      7.08669879     -4.95209174
  H     12.90860330      8.43389674     -5.36467716
  O     -2.77944954      7.26273812     -5.02237992
  H     -1.95685934      7.75765357     -5.02439567
  H     -2.82860758      6.72608483     -4.22790730
  O     -0.40942959    -13.39272257     -4.43836087
  H     -1.18623117    -13.73782202     -3.99217069
  H      0.24282543    -13.12636788     -3.78627302
  O     19.44990737      5.47640816     -0.16231537
  H     19.43325030      6.43099921     -0.26270697
  H     20.16496987      5.11126906     -0.68858437
  O      6.69995112    -15.93373879      2.74219321
  H      7.33910762    -16.01656739      2.03070295
  H      6.66113459    -16.75639612      3.23547629
  O     -0.71186872    -19.06876461      3.50785348
  H     -0.41758846    -18.30243107      4.00558036
  H     -1.56367106    -19.35980897      3.84150892
  O     -1.43247323     14.54595104     -1.62626520
  H     -2.19288506     15.11963771     -1.74566977
  H     -1.69910838     13.63146522     -1.74551866
  O      8.52717701     -4.83898898     -6.84920909
  H      9.44055879     -4.58375071     -6.99816261
  H      8.01643511     -4.68201133     -7.64676832
  O     -8.51427427    -11.02004197      3.97817375
  H     -8.13198683    -11.88613117      3.81897010
  H     -8.95865933    -10.71496616      3.18378677
  O     11.06920142      7.11154949      1.61725589
  H     11.68547735      7.73109954      2.01469986
  H     10.49975448      7.57716547      1.00038317
  O    -15.68422712     -9.37441443      3.83832925
  H    -15.84466236    -10.07925604      4.47004030
  H    -14.74601340     -9.17239494      3.81502413
  O    -11.66699702     -0.49372544      6.59080877
  H    -11.05169691     -0.27041379      7.29304640
  H    -11.36801369     -0.10294465      5.76649127
  O     -9.36566301      4.50816539     -8.81582897
  H     -9.81452685      4.87540073     -9.58085149
  H     -9.16914299      5.21068608     -8.19177403
  O      6.52566100     16.61208204     -3.52270349
  H      6.20236228     17.51523316     -3.56006652
  H      6.43486470     16.20321837     -4.38652439
  O     -0.19683389     16.60342487      4.50037692
  H      0.22280471     17.35659384      4.07819216
  H     -0.76457043     16.15684277      3.86804818
  O      1.83451989     14.46061775     -0.17714870
  H      1.30206319     15.23889971     -0.35705721
  H      2.74415885     14.62825415     -0.43416036
  O      1.14286201    -19.37527208     -5.99434213
  H      1.78664684    -19.74536755     -6.60275847
  H      0.54533815    -18.79624352     -6.47318570
  O     -7.51793265    -16.56445836      6.82774192
  H     -7.12448748    -16.08610699      6.09427013
  H     -8.31663993    -17.00640377      6.53050306
  O     12.07757780     -1.68797379      0.85837000
  H     11.51559166     -2.41764486      0.58753478
  H     12.31140436     -1.16142911      0.09046646
  O    -15.75908332     15.70623549     -0.49460127
  H    -16.27554814     15.30741035      0.20953124
  H    -15.05336219     16.23459348     -0.11460716
  O      1.20863120    -23.01547452     -1.68553440
  H      0.82053748    -23.20470545     -2.54295783
  H      0.56430525    -23.19203646     -0.99613614
  O     -3.58949561    -16.44854033     -4.90688769
  H     -3.43449904    -16.08090317     -5.78005376
  H     -3.76990381    -15.73776843     -4.28732640
  O     13.68241248     14.46216746     -3.70880485
  H     13.23359676     13.77893676     -3.20545580
  H     14.26587586     14.95662964     -3.12856556
  O      8.40925592     -2.45859263     -7.38765661
  H      7.96204430     -2.89821506     -6.66079082
  H      8.96539220     -1.75576545     -7.04364150
  O     -0.73366889    -24.71822343     -0.90721838
  H     -0.94541269    -24.27510058     -0.08235068
  H     -1.10866223    -24.22573420     -1.64099924
  O    -10.41930630     12.80708818      7.01828515
  H     -9.91670691     12.49438005      6.26250246
  H    -11.35016809     12.85170800      6.78783907
  O     -2.94855244     -7.84494174      7.82763474
  H     -3.72685845     -8.29668841      8.16194703
  H     -2.27815941     -7.81105508      8.51394726
  O    -17.25281132      0.24161476     -1.28712964
  H    -17.19277162      0.45688152     -0.35350473
  H    -16.45949433      0.54164214     -1.73683146
  O      0.98336326     -5.71424697      7.61525197
  H      0.42254830     -6.25295329      7.05232916
  H      1.48889141     -5.10363816      7.07377421
  O      3.05804116     15.44184052     -7.55377090
  H      2.43978249     14.91123447     -7.04601757
  H      3.63347568     15.92382516     -6.95530124
  O     11.93692163    -20.84551502      2.34185382
  H     11.35085877    -20.45504840      2.99428478
  H     12.80965247    -20.96248984      2.72429046
  O      7.35867610      1.09847568     -4.50708941
  H      7.86326350      1.79313544     -4.93655347
  H      6.46904085      1.41208014     -4.32876004
  O     -9.55612233      9.16290987     -1.66958462
  H    -10.15182403      9.59422805     -2.28659686
  H     -8.83639219      8.75136950     -2.15355059
  O     13.16445774      2.30457255      3.79870140
  H     14.06627308      2.43486658      3.49645554
  H     12.56055830      2.40932104      3.05982847
  O      1.40894752    -20.58135624     -3.83464859
  H      1.41221461    -21.04569358     -4.67487485
  H      1.27588261    -19.64300599     -3.98759478
  O     -4.36430900    -22.66284403      0.56602388
  H     -5.12451266    -23.23872581      0.67579894
  H     -4.56726737    -21.98424844     -0.08198533
  O      2.95085187    -18.64259673      1.81147889
  H      3.78931269    -18.24202849      1.57038028
  H      2.25794043    -18.30447042      1.23951355
  O      6.48475929    -13.27209232     -3.28632896
  H      6.55610340    -14.21875820     -3.42892537
  H      6.29448589    -12.83587817     -4.12006348
  O    -19.84453506      2.42991090      2.39013463
  H    -20.24158935      2.84663457      1.62183178
  H    -20.49376347      2.37262301      3.09498962
  O     -4.59945290     -3.91294026      7.86276821
  H     -5.00858919     -4.45728458      8.53944890
  H     -3.85455782     -3.43901475      8.23976416
  O    -14.72030220    -11.83882985     -3.97382962
  H    -14.97166250    -12.67553706     -4.37174801
  H    -13.82049734    -11.62077835     -4.22761054
  O     -8.18289014    -15.21075992     -2.51898920
  H     -8.47732874    -15.81761769     -3.20209209
  H     -7.76721959    -14.44718973     -2.92614833
  O      3.08790989     -3.44882246      8.78365892
  H      3.76100709     -3.57158241      8.11025700
  H      2.34257094     -2.97381860      8.40890410
  O    -19.26607285     -3.08840475      1.95988401
  H    -20.14420752     -2.76997305      1.73834225
  H    -19.21140462     -3.24600751      2.90527957
  O      2.96035762     -4.15579080      4.59860955
  H      3.09774113     -3.39674148      4.02714660
  H      2.81425662     -4.93845410      4.06223966
  O      1.16385268      2.24135183      6.29485708
  H      1.70096141      1.86841912      5.59198056
  H      0.36389821      2.61829799      5.92124709
  O      1.18100101    -13.69132659      6.71545036
  H      1.07891572    -12.89141385      6.19456822
  H      1.44787204    -14.41447264      6.14322693
  O     19.38353551     -3.19440138     -3.02672088
  H     18.79811025     -2.65545940     -2.48967450
  H     20.02241350     -2.63058528     -3.46892708
  O     18.84062206     -0.23796115     -0.75133204
  H     19.18167532      0.13568255     -1.56721994
  H     17.88378710     -0.16104964     -0.73902372
  O      5.32710943     -1.36261929      9.67856361
  H      5.64312816     -0.57699332     10.13080690
  H      5.08850119     -2.03060064     10.32545389
  O     -8.47078618     -6.66069056      3.90865629
  H     -7.85757943     -6.01825743      3.54416052
  H     -8.80618665     -7.21938207      3.20369506
  O      9.36110008     11.59222098     -3.35125789
  H      9.07115956     11.64177148     -2.43743118
  H     10.29317564     11.81587607     -3.40430092
  O     -5.83675994    -17.13855700      3.35659761
  H     -5.85131665    -16.49051957      2.64847644
  H     -4.93246975    -17.41849823      3.51626026
  O      9.11136444     10.35459709      4.07242140
  H     10.01863486     10.64106800      4.20046362
  H      8.58338646     11.09275070      3.75942218
  O    -10.37549747      3.70800401      4.55190573
  H    -10.28975171      4.61084112      4.23705209
  H    -10.52256182      3.12125889      3.80645134
  O    -13.24167518     -3.02295152     -5.45335584
  H    -13.81813004     -2.54095681     -4.85587706
  H    -13.36341486     -2.69748720     -6.34825943
  O     -9.63340546     19.40111771      0.62223784
  H     -9.71184097     19.54484195      1.56817188
  H     -8.78317697     18.99964029      0.42851794
  O     -1.29487161     12.83635038      7.97051558
  H     -1.36948287     11.90940194      8.20884257
  H     -0.95747770     12.91078897      7.07484585
  O      1.91478780      2.10692931      3.05340796
  H      1.06792721      2.38073525      3.41320994
  H      2.54213359      1.98284133      3.76939639
  O      2.05817571      0.83497364     -4.89773804
  H      2.29914454      1.50919971     -4.25824352
  H      1.93825286     -0.00477730     -4.44825293
  O      2.74299752     -1.11439785      3.89570769
  H      3.65668917     -1.37019443      4.04177508
  H      2.68506378     -0.56831715      3.10828178
  O     11.13477954    -16.95179476      3.13224672
  H     10.98590511    -17.73013730      3.67411323
  H     10.42626081    -16.32037122      3.27683417
  O    -12.82930741      3.55072207      2.18835377
  H    -13.24112091      2.70867278      1.98107948
  H    -12.39350254      3.49285615      3.04177375
  O      5.82092365    -20.30459776     -4.81839213
  H      6.21325315    -20.79560049     -5.54406002
  H      5.70260397    -19.38812233     -5.07853296
  O      5.42926537     -6.45438351      1.51584426
  H      4.72582109     -6.59510889      2.15378040
  H      6.22546254     -6.90083833      1.81307844
  O      2.66233857     12.29627650     -2.01016012
  H      3.17411842     11.74460314     -1.41405787
  H      2.26225887     13.01600214     -1.51667127
  O      6.01926653    -16.55785916     -6.96335289
  H      6.07188519    -16.80793052     -7.88871530
  H      5.09839796    -16.46591010     -6.70811484
  O     -2.73870963     -6.57695575      3.98290313
  H     -2.06452653     -5.89431664      3.95002452
  H     -3.44883048     -6.35551813      3.37603101
  O      5.07482071     -4.30735346     -0.53059747
  H      5.80099320     -3.84135902     -0.95145696
  H      5.34545406     -4.60073749      0.34249096
  O      5.72152699     11.56711379     -2.09821016
  H      5.19604004     10.99973068     -2.66701581
  H      5.14248231     12.16072671     -1.61454607
  O    -17.05690769     -7.64635462      3.33955953
  H    -18.01394353     -7.70036972      3.39214065
  H    -16.80846604     -7.00186556      2.67284324
  O     -8.96347684     10.09250449     -6.66404597
  H     -8.18038307     10.53093851     -7.00483881
  H     -9.60277724      9.98261661     -7.37173210
  O      3.74076987     -7.43508236      9.35184076
  H      4.49533985     -6.87407777      9.15819674
  H      3.51862465     -7.36323887     10.28301745
  O     -5.50539449     -2.31141549      7.07542597
  H     -5.89593042     -2.19268202      7.94432415
  H     -6.20072864     -2.35733379      6.41512154
  O      3.47332303    -15.47687277      6.21872656
  H      2.68989475    -16.03147831      6.20282592
  H      3.40278150    -14.84310672      6.93633682
  O     15.82982414     11.83762850      1.82701747
  H     15.07249962     11.62973582      2.37914084
  H     15.53165413     12.27130698      1.02413664
  O     -5.77782124     12.45919477     -2.20490150
  H     -6.56161480     12.93040623     -1.91296414
  H     -5.24135065     13.03759285     -2.75194352
  O     19.23606811     -4.30991854     -0.48422825
  H     20.19162517     -4.31327918     -0.57642051
  H     18.98378120     -4.86408877      0.25796220
  O     -7.17693991    -15.21094090      1.86124502
  H     -6.54511393    -15.34081590      1.15023980
  H     -7.57329665    -14.34012382      1.78263874
  O      2.89161287      4.51047779      7.10541115
  H      2.43494176      4.84913383      7.87895080
  H      3.65491427      3.99843591      7.38251056
  O     -8.44373503     -3.56888176      6.89800181
  H     -9.16183417     -4.19857746      6.80096085
  H     -7.92043834     -3.79608347      7.67010282
  O     -4.23386874     17.47000022      0.73400078
  H     -3.84499105     17.53380685     -0.14138648
  H     -5.19049268     17.50828306      0.66325424
  O      1.89800551      0.78804133      1.39399652
  H      1.64576509      1.43448732      0.73060948
  H      2.62832409      0.25912374      1.06463204
  O     -7.22801590    -18.39154629     -2.77991137
  H     -7.65433266    -18.75187301     -3.56094830
  H     -7.42432590    -17.45434412     -2.71124926
  O    -16.61329448     -6.25971529     -0.76824741
  H    -16.63811097     -5.41850404     -1.23014327
  H    -17.30539542     -6.28072729     -0.10330020
  O      2.61695721     -6.88015853      0.42959142
  H      1.67866516     -7.03705795      0.30078692
  H      2.78954942     -6.71486311      1.35937061
  O     -2.22605928      3.23258827      5.59684659
  H     -2.83010961      2.54252922      5.31304789
  H     -1.78468464      3.60702339      4.83095706
  O      6.02864241      6.78485960      1.77145414
  H      5.71546827      7.60259475      1.37796819
  H      6.96845936      6.68697510      1.60185831
  O     -1.95270129      8.32829563      5.69751138
  H     -1.43249770      7.79201722      6.30033284
  H     -2.83922805      8.43743744      6.04930445
  O      1.04556064     -1.70489393      2.96544683
  H      0.76281539     -2.62230535      2.96882424
  H      0.71801611     -1.27152811      2.17392383
  O      7.28883616     11.77291793      0.29621336
  H      7.43696773     10.83323262      0.42524268
  H      7.51588421     12.24643987      1.09984646
  O    -17.52553147     -4.24245556      0.36024939
  H    -17.82379146     -4.45541166      1.24754341
  H    -18.25910599     -4.32662315     -0.25325224
  O     -6.31124967     11.58099216     -6.58695820
  H     -5.74070194     12.28396152     -6.26772574
  H     -6.54408896     11.00131712     -5.85801189
  O     17.60499989      4.72018993      0.78135886
  H     17.71444642      5.35555442      1.49264884
  H     17.19012577      5.14924548      0.02943413
  O     -7.67747441     12.78297281     -7.65014152
  H     -8.34807421     12.52792432     -7.01229656
  H     -7.24104777     13.58474918     -7.35301118
  O     -5.83366124      0.61677413      8.14505037
  H     -6.40478812      0.50762767      7.38117790
  H     -4.95998130      0.27371310      7.94357458
  O     -1.49560029     -4.06893879      5.62790538
  H     -1.41211116     -4.14079355      4.67424587
  H     -0.93772302     -4.72705871      6.04891741
  O     -1.05824228     -8.11349260     -6.97553144
  H     -0.77843011     -7.19563164     -6.94661071
  H     -0.41300990     -8.62997134     -7.46392155
  O      4.72170778     19.82516262      3.11905731
  H      3.90494456     20.32956601      3.11039279
  H      4.52610613     18.90151605      3.29288776
  O      8.07855599    -11.92799852      0.12426812
  H      7.54459220    -11.50911156      0.80325000
  H      8.90992132    -12.22010548      0.50519492
  O      4.27163946    -21.41348810      5.34355522
  H      3.43490236    -21.71009933      4.97818853
  H      4.74359906    -20.89750772      4.68581790
  O     11.15659154    -15.41394465     -3.94072303
  H     10.35588079    -15.04277575     -4.31847421
  H     11.91224125    -15.15413896     -4.47278930
  O     10.82252747    -15.55618857     -0.76067297
  H     11.26921472    -16.31198215     -1.14906269
  H      9.89990758    -15.55811704     -1.02594420
  O     16.60246947    -11.33113062      2.98825439
  H     17.07587730    -10.53161956      2.74686861
  H     16.91571876    -12.06326492      2.45210678
  O      7.23353552      7.65858135      6.65860154
  H      6.55063353      7.93664222      7.27335924
  H      7.91250884      7.17253493      7.13226187
  O     10.70427718      2.81550919      4.44964059
  H     10.89625288      1.94812693      4.08578162
  H      9.94567024      3.19194167      3.99751881
  O      3.94465431     -3.24505436     -2.46832816
  H      4.76333934     -3.70174580     -2.67518017
  H      4.07604518     -2.29781292     -2.55241209
  O     13.90026582      7.08114426      7.02964084
  H     13.58589499      6.47542479      6.35445575
  H     14.18959418      7.89841214      6.61737599
  O     16.86397657     -2.69531482     -3.64128201
  H     16.60375331     -3.43695605     -4.19250987
  H     17.11731061     -1.95550410     -4.19815000
  O      3.81681717     -4.55112399     -4.22525236
  H      3.00294378     -4.99048023     -4.48249969
  H      4.40918001     -4.50667461     -4.97939460
  O     -1.89656561     13.61221468      0.87776896
  H     -2.76281790     13.65086051      0.46580600
  H     -1.24562540     14.00675507      0.29277774
  O      9.69286205     -6.57676422      4.82803801
  H     10.02034299     -7.16625332      4.14476732
  H      8.73664860     -6.51641944      4.76791853
  O    -11.83261585     14.26642607     -0.50694344
  H    -11.02294863     13.76404888     -0.39008390
  H    -11.69432352     15.16993972     -0.21345014
  O    -10.99125219      8.02134511      0.08467995
  H    -11.39055950      8.77272011     -0.35983022
  H    -11.10589034      7.23357539     -0.45186173
  O     11.10450522      6.50617100      6.10270215
  H     10.82051506      7.42145609      6.04610895
  H     11.61989976      6.37943657      6.90264393
  O     -1.13489483    -18.29717157      1.70560360
  H     -0.70388950    -17.51695958      2.06211959
  H     -2.07738439    -18.13371218      1.62439731
  O     -0.25729932     -7.28411579      4.83342971
  H     -0.78224265     -6.64144524      5.31613984
  H      0.25795326     -7.80674883      5.45227499
  O     14.62047320      7.90781176      4.22860579
  H     14.06514761      8.07089641      3.46269660
  H     15.19782100      7.16126904      4.05269815
  O     17.73899168     -0.37084725      5.15148516
  H     17.02056956     -0.05328139      5.70341049
  H     18.45602132     -0.68410060      5.70766933
  O     16.21645432      6.10890034     -5.41738252
  H     16.42275746      6.74901473     -6.10243185
  H     15.63924348      5.43071431     -5.77583943
  O     -7.92186510     -0.05414878      0.74512247
  H     -8.27324383      0.15362472     -0.12376369
  H     -7.64209296     -0.97222852      0.76650360
  O     -1.88902843      7.26250720     -9.55235605
  H     -1.31697494      7.59535656     -8.85696687
  H     -2.68082053      6.88471632     -9.16256209
  O     -4.35182934     20.64481238     -5.21558942
  H     -4.64158349     19.90719751     -4.67377134
  H     -4.06698821     21.36586821     -4.64942334
  O     -8.70863663    -18.88585345     -0.44998884
  H     -8.82168473    -19.83453714     -0.35607720
  H     -8.90922485    -18.62700559     -1.35240900
  O     -1.11690120    -14.24371017     -8.40324401
  H     -0.42390144    -13.62833226     -8.65356655
  H     -1.25968732    -14.87223338     -9.11470075
  O     -0.69841935     15.23488948     -4.46816549
  H     -1.06506430     14.55537770     -3.89769620
  H     -0.93531498     16.10085758     -4.12819531
  O      7.87772142     -5.78244473     -4.51376578
  H      7.29743399     -5.76961391     -5.27842379
  H      8.59216080     -5.15438996     -4.64308548
  O      6.01056856      0.18247505      7.51665205
  H      5.44861576      0.21304889      8.29438869
  H      6.88549245      0.50806948      7.74047443
  O     13.17631301      0.91442899      7.87495388
  H     13.29266379      1.73405084      7.38886488
  H     12.46825993      0.40319377      7.47633201
  O     -8.32942322     10.89898915     -2.86235674
  H     -8.14189070     10.78839135     -3.79734321
  H     -7.56088741     10.64019312     -2.34856951
  O     -7.45619801      4.32088323     -3.54676414
  H     -7.87949246      4.62392749     -2.74017504
  H     -6.53297407      4.12563742     -3.37030838
  O      4.16291208     -4.69299922      2.60561848
  H      5.07898266     -4.63367196      2.32473599
  H      3.61594229     -4.95532999      1.86157102
  O      8.65494262    -11.69080715      5.69826005
  H      8.14503487    -10.89761241      5.51815951
  H      8.57732342    -12.29670438      4.95767662
  O      9.60127990    -21.67674075      0.68805951
  H     10.33433929    -21.97923716      1.22909542
  H      9.22823703    -20.87926270      1.07077059
  O      7.53041605    -11.17134701      2.78250027
  H      7.38655776    -11.98817108      3.26592889
  H      7.37902521    -10.42336491      3.36491215
  O     -9.60012929    -19.58337827      1.49243892
  H    -10.31835046    -19.17446669      1.00402346
  H     -8.96456602    -18.91161709      1.75011365
  O     -5.93322957    -13.14686535      3.03058596
  H     -6.41514822    -13.91026740      3.35703921
  H     -6.03156774    -13.08943142      2.07736460
  O    -11.82446554     -0.70351392     -1.59103254
  H    -11.87486631     -1.63507550     -1.36464178
  H    -12.71131123     -0.34773621     -1.68337399
  O     -4.16286483    -13.34722120     -6.22960856
  H     -3.53923289    -13.16254915     -5.52350698
  H     -4.43846461    -14.26556184     -6.18170005
  O     -3.79450241      3.00311492     -3.19348990
  H     -3.25028823      3.61258497     -2.68952840
  H     -4.06878341      2.27658811     -2.62910641
  O    -12.94038921     -5.15107811      1.50145149
  H    -12.71628939     -4.39558987      0.95316617
  H    -13.67001813     -5.63108596      1.10291153
  O     11.60008828     -6.70708303     -0.69028702
  H     11.43968677     -7.60602268     -0.98656201
  H     12.53996459     -6.51719573     -0.73692753
  O     -2.26114017     18.88986619     -0.43878799
  H     -1.56828233     19.13967312      0.17695913
  H     -1.86954919     18.65090682     -1.28208801
  O    -18.76968717     -0.88395185     -3.26818802
  H    -17.96896722     -0.99831274     -2.75111052
  H    -19.52392230     -0.81024724     -2.67886891
  O     -6.43598235     19.07376764     -0.28096893
  H     -7.18132219     19.49135878     -0.71878872
  H     -6.66925871     18.87441100      0.62866786
  O     -0.67637449     10.07518508     -8.65756300
  H     -0.21576225     10.69684251     -9.22587488
  H     -1.34307642      9.60865089     -9.16692966
  O     -5.05570631      4.69926475     -0.49381142
  H     -5.71399699      4.58661798     -1.18342297
  H     -4.19320753      4.83438696     -0.89310809
  O      9.79782104    -10.74870125      7.05219105
  H     10.50892655    -11.04781573      7.62355737
  H     10.16449903    -10.43042647      6.22403139
  O      9.77569466    -10.41070828      0.10173476
  H     10.49247832    -11.00924711      0.32438351
  H      9.38387536    -10.67659857     -0.73335805
  O      8.36691886     -1.22147255     -2.58267775
  H      8.52759248     -2.15064643     -2.76273298
  H      7.69237397     -1.13841325     -1.90467308
  O    -10.67374504     -5.41661184     -7.90322014
  H    -11.29210158     -5.73644875     -8.56423417
  H     -9.85087588     -5.90645917     -7.97056951
  O     -5.78743937    -10.34457804      8.64112080
  H     -5.60095560    -11.27654884      8.77622903
  H     -5.04025823     -9.92815410      8.20533249
  O    -11.65660120     -7.00161025      7.12320701
  H    -11.87938375     -7.84698965      6.72659435
  H    -11.91993013     -6.29153236      6.53325169
  O     -2.79835337     -3.65458737    -10.04841623
  H     -2.50096226     -2.98449023    -10.66819713
  H     -2.04962754     -4.18513744     -9.76641220
  O     -7.42029039      1.95640099      2.65426790
  H     -6.64041616      2.02230633      2.09834284
  H     -8.20493481      1.91868509      2.10244307
  O      6.67368159     20.29397536      2.81453537
  H      7.46911973     20.13665693      2.30060048
  H      6.19187982     21.03530027      2.44049735
  O    -10.62619400     -2.98191034     -8.00951044
  H    -10.42207954     -2.10815046     -7.66821736
  H    -11.54463722     -3.19157394     -7.82483986
  O    -17.26232082      6.87576088      0.01578494
  H    -17.37181786      6.18841936     -0.64540493
  H    -16.72920174      7.58709323     -0.34669313
  O     -9.47661877     -9.65842437      6.22133475
  H     -8.97380276    -10.04249335      6.94332303
  H     -8.91559497     -9.57990023      5.44629523
  O    -10.32124180     -7.85219010     -2.97856306
  H     -9.59115814     -7.26192666     -3.17897994
  H    -11.04445201     -7.68561391     -3.58751245
  O     15.33543151     -5.05059329      4.44819513
  H     15.17281127     -5.95159904      4.73688752
  H     14.55510650     -4.71055553      4.00427261
  O     -8.03454772      3.07755027     -6.88860180
  H     -7.20274057      2.67634950     -7.15077504
  H     -8.64406701      3.06522517     -7.63017737
  O     -5.17916553      7.06061809     -5.48599617
  H     -5.08694369      7.97178779     -5.19813348
  H     -4.70627474      6.48410210     -4.88134452
  O     -3.41078738    -19.93096741      4.38495473
  H     -4.14091045    -19.71901645      4.97112630
  H     -2.84188889    -20.58099749      4.80378095
  O     -2.97590449     19.14470465     -5.89741288
  H     -2.46829281     19.40865573     -6.66829563
  H     -2.47176534     19.33208099     -5.10221868
  O      5.79804988    -18.75228094      6.59453551
  H      5.50508139    -17.94762742      7.02847349
  H      6.29490135    -18.52761156      5.80443281
  O      8.37139988     -3.49917088     -1.22572765
  H      7.90577546     -2.83464242     -0.71270150
  H      7.74353836     -4.14368122     -1.56038619
  O     -7.37803056     16.97741049     -4.86633962
  H     -6.54145173     16.98530525     -5.33716180
  H     -7.87555676     17.76913445     -5.08368924
  O      5.51010540     11.41044385      7.86085938
  H      4.81511824     11.76407349      7.30091392
  H      5.34181529     11.65524205      8.77374069
  O     -4.73248063     -6.64033587      6.15176242
  H     -4.78184768     -6.20823380      7.00759575
  H     -3.92762365     -7.16120057      6.10171032
  O      9.83258788     -9.20764749      1.70088165