914
Energy =      0.00000000 au
  O      5.00931546     -2.26970029     23.19207786
  H      5.55615451     -1.72895262     22.61748320
  H      4.31774413     -2.68891541     22.67478898
  O      9.70005355     -0.11929386     19.19663192
  H     10.15080636     -0.43133364     19.98470113
  H      9.72700238     -0.80077448     18.52101523
  O      0.06585656      2.23111035     16.76389744
  H      0.04515263      2.15707301     17.72081428
  H      0.84282690      1.78094095     16.42439103
  O     -0.56877672      7.40807969      5.51444840
  H     -0.44156299      8.34372593      5.34129303
  H     -0.47750772      6.91533874      4.69562221
  O      2.55226264      1.53871056     10.44716009
  H      1.74691727      2.05729267     10.51112438
  H      2.49453109      0.78313211     11.03653966
  O      5.09092813     11.70837752      6.29347406
  H      4.23016059     12.09490929      6.47031426
  H      5.00863103     11.04402329      5.60538930
  O      6.83443753      5.60182396     15.31895830
  H      6.57459334      4.71624816     15.58322427
  H      6.30574019      5.88010555     14.56753400
  O      2.91831381      9.10917475      7.15503408
  H      3.26551251      8.77195165      7.98408996
  H      3.62793532      9.51538590      6.65201339
  O      1.31113945      6.48006068      7.56390260
  H      2.25015829      6.41674300      7.37460261
  H      1.09573355      7.37998817      7.81950152
  O      0.15415698     -0.25525505      5.06940727
  H     -0.42865776      0.19606389      4.45439654
  H      0.73270506     -0.84917084      4.58552074
  O      8.60807368     12.38296581     15.78527812
  H      7.84526053     12.51741298     16.35241132
  H      9.39254078     12.26503368     16.32592901
  O      1.40441610      1.20399087     20.75240972
  H      1.36610490      1.25819935     19.79470742
  H      1.97952376      0.47963551     21.00962652
  O      7.76054549      5.56557429      9.95569986
  H      8.42289018      6.22313433     10.18045374
  H      7.47279455      5.11503049     10.75307661
  O     -4.57413193      5.80539114      6.07067301
  H     -3.76341152      6.18114758      5.71976061
  H     -4.60574248      5.94181789      7.02040377
  O      6.80664781     -4.31171669      5.42778443
  H      6.08789350     -4.34230139      6.06343907
  H      7.45215361     -3.65752234      5.70518669
  O      6.99058240     -1.28004973      7.27570753
  H      7.46492064     -2.11419589      7.30405251
  H      7.57191715     -0.59194772      6.94379560
  O      1.16955586     11.58944630      3.18970270
  H      1.09484832     12.21053203      3.91790001
  H      1.41132816     10.72477172      3.52953212
  O      8.53440065      6.35626888      0.01954420
  H      9.00596402      7.09462212     -0.37296373
  H      7.71296615      6.66933009      0.40533955
  O      2.20841599      5.51116269      3.37385195
  H      3.00897516      5.66950384      3.87945367
  H      1.71171912      6.32895925      3.29574302
  O      1.95164845      5.94422956     10.32168709
  H      2.29051979      5.04653208     10.29159630
  H      2.01607331      6.34047469      9.44965542
  O      4.46372342     -1.44896658      8.49205956
  H      4.38306179     -1.52164281      9.44590015
  H      5.25437725     -0.94986544      8.27442552
  O      1.21745979      7.79792722     17.21786043
  H      0.65071277      8.18414794     17.88959801
  H      1.74502079      8.48761261     16.80845420
  O     12.17859886      7.13771252      5.49957978
  H     12.56602230      6.89258595      6.34303461
  H     11.75991713      7.99810742      5.57720856
  O      3.10092384      3.08856587     16.18917467
  H      3.24410775      2.14922208     16.05231114
  H      3.90476129      3.48919961     16.52819969
  O      3.11447155      3.44275004     -0.80163966
  H      3.45470775      4.17982189     -0.28922927
  H      2.40721890      3.01337979     -0.31477739
  O      8.93487898      2.43396372     -0.05325117
  H      9.12248796      3.31164735     -0.39394798
  H      8.77079886      1.83451126     -0.78491672
  O     -3.42163500     -0.32554072     16.67165502
  H     -3.00618181     -0.97893057     17.23917626
  H     -3.17087221      0.55514322     16.95994971
  O      6.51637750     11.08134854     15.02037236
  H      5.77718902     10.47198862     14.95807560
  H      7.25284374     10.64808639     15.45798109
  O      6.93224495      7.63673635     -1.36352185
  H      6.39834825      6.85500214     -1.20400398
  H      6.40815522      8.42288831     -1.19353639
  O     -1.95812419     -1.89257682      6.85522661
  H     -1.77618384     -0.95205397      6.79266075
  H     -1.84308933     -2.18150275      7.76346050
  O     -3.49259150      3.97219883     19.68527585
  H     -3.28594176      3.14618554     20.12866951
  H     -3.72305894      3.79577611     18.77020220
  O     -0.37826665      3.40687014     23.04610867
  H     -0.08758780      4.07365597     23.67260884
  H     -0.72328262      3.83519578     22.25927887
  O     -2.25875102      2.58190303     17.84533396
  H     -1.77759097      3.25465514     18.33266301
  H     -2.11785691      1.72596236     18.25656920
  O      1.02514703      4.40431529     18.50264874
  H      1.00550227      3.95700750     17.65345511
  H      0.43512884      5.16125576     18.47985275
  O      3.31246022     -2.33524233     14.36780732
  H      3.13836120     -1.39181966     14.33254836
  H      3.49372774     -2.66094033     13.48312495
  O     11.71536586      7.52859530     14.32740470
  H     12.39403852      8.20544777     14.27379353
  H     11.59357781      7.26876243     15.24351307
  O     -0.32860994      9.15809433     16.38171705
  H      0.08015229      8.79696688     15.59171679
  H      0.09032703      9.99205218     16.60667511
  O      4.33052147     11.07304009     16.60467543
  H      3.71600081     10.77884258     17.28099797
  H      5.02380342     11.59987444     17.00891013
  O     12.25543380      4.80840377      8.94734924
  H     11.83402388      5.04749643      9.77611241
  H     12.27360829      3.85245187      8.86117698
  O      2.91802300      6.69465077     18.36494053
  H      3.10014938      7.61131073     18.58440463
  H      3.53985603      6.12551768     18.82430009
  O      0.77061597      7.97324950     10.74125520
  H      1.69354571      8.02890285     10.48298516
  H      0.62483644      7.16426409     11.23712912
  O     -1.14514488     -2.29649707     12.28267405
  H     -0.86747813     -2.84435708     13.02047524
  H     -2.08308801     -2.42488385     12.12336454
  O      1.80166810     -3.56428449      2.56822120
  H      0.95064236     -3.79178517      2.18664731
  H      1.75726326     -2.68399747      2.94864594
  O     -3.40576897     -0.13583270     14.64845241
  H     -4.17409479      0.29452737     14.26626703
  H     -2.79296702      0.52930438     14.97042514
  O     -0.94656067     10.77678314     -0.88585869
  H     -0.65796933     10.47191282     -1.74920632
  H     -1.54159969     10.12978181     -0.49995993
  O     -3.58410194     -0.01340609     19.75115602
  H     -3.17166350      0.85008362     19.82783752
  H     -2.90897821     -0.69509692     19.78440594
  O      9.62098129      5.52161453      3.41829281
  H     10.07452193      6.36572269      3.36013526
  H      8.96045564      5.46423054      2.72402128
  O     -4.03395358      3.88779497      6.48849001
  H     -3.31696818      4.14701137      7.07187563
  H     -4.81068065      3.67420084      7.01067065
  O      0.83490286     -1.33717975     11.38183768
  H      0.95114469     -2.19334287     11.80025439
  H      0.86379792     -0.64775679     12.04926638
  O     11.65152721      9.40223678     16.35867547
  H     11.02131871     10.01147011     15.96717579
  H     11.51414733      9.36526463     17.30807519
  O      8.99816606     10.59966801      6.84765807
  H      9.68487606     10.86209146      7.46504233
  H      8.16331231     10.99419904      7.11026897
  O      4.57396189      2.29689600      2.98919440
  H      4.68691841      2.26321030      3.94193051
  H      5.43488681      2.31781302      2.56496479
  O      8.98023261      6.10798140     19.57059457
  H      8.23063086      6.18895173     18.97633787
  H      9.75286636      6.51185894     19.16869902
  O      1.59704546     -1.26795078      7.25935400
  H      1.86071149     -1.64851242      6.41837061
  H      0.64929276     -1.11509604      7.25884929
  O      3.54766462      7.37551736     -0.74311545
  H      3.53747749      6.57588223     -0.21200352
  H      3.49955011      8.14276076     -0.16811756
  O     11.37175994      3.68402208      5.23352978
  H     10.98194215      4.18113604      4.51067446
  H     12.01872821      3.06614673      4.88530268
  O      4.66655427     -1.98905967     -1.21138727
  H      4.03193774     -1.76069212     -0.52822541
  H      5.55725262     -1.85793062     -0.87812819
  O      4.49006805     10.79395130     12.14755137
  H      3.68729307     11.30808260     12.03431996
  H      4.36191994     10.14967762     12.84761529
  O      3.94781209     -3.91775476      8.04384081
  H      3.46288945     -4.70885029      8.29004786
  H      3.39803669     -3.14519689      8.19384525
  O      5.25368359      9.37265560      9.97048894
  H      6.04643973      9.91161369      9.91889560
  H      4.60264618      9.69962490      9.34531587
  O      3.04324277     -1.20817199      3.80083862
  H      2.47809051     -0.49566529      3.49336969
  H      2.93919659     -1.31313527      4.74939389
  O     10.47627106      3.27742092     21.59231814
  H     10.82368068      2.40782020     21.80374463
  H     10.42049299      3.80364814     22.39330111
  O      5.25371379     -3.92944551     12.06972369
  H      5.31765961     -3.41020044     12.87464325
  H      6.09771717     -3.91699430     11.61244557
  O     -1.37269848      4.80103573     16.19910631
  H     -1.16773447      3.87270484     16.33249114
  H     -0.71494941      5.19459786     15.62111408
  O      7.63310675     -1.69519558     16.95671785
  H      7.39699882     -2.54714116     16.58249628
  H      6.89583794     -1.35462827     17.46862470
  O     -4.67346414      2.31674008      1.45222697
  H     -4.70666524      3.25872982      1.27014725
  H     -5.20466679      2.12131353      2.22761862
  O      4.65112416      1.72211075      6.00080768
  H      3.76583651      1.94335473      5.70261834
  H      4.70105462      1.81717277      6.95478366
  O     10.67415195      9.40273854     19.73021977
  H     11.05197003      9.19007459     20.58674038
  H     11.27701604      9.97208383     19.24648345
  O      7.21471389      5.35140948     24.15014044
  H      6.90550744      6.14034173     23.69894505
  H      7.59541637      5.59504802     24.99707957
  O     -1.79924932     10.59500611     19.07221010
  H     -1.88514848     10.33235687     18.15284254
  H     -2.00387734     11.52890632     19.15914551
  O      7.34546346     -1.57654971     19.87450564
  H      6.52484509     -2.04154612     19.69572134
  H      8.08654503     -2.17273294     19.74426099
  O     10.00492808     -0.56056321      4.98464990
  H      9.12589876     -0.37525899      5.32313153
  H     10.65103721     -0.04230271      5.46998384
  O      1.37712748      7.06752129     -4.05404297
  H      0.66762905      6.49128467     -4.34757890
  H      1.23543436      7.30794779     -3.13550165
  O      5.84374025      0.63166080     -1.97193120
  H      5.66945493      0.41761916     -1.05246896
  H      5.08366899      0.39087337     -2.50663961
  O      5.94968900     12.04180584      0.24812992
  H      5.88311761     11.37113555     -0.43551445
  H      6.67286104     11.82447463      0.84091094
  O      7.86442157     -0.29652268      3.60493110
  H      7.79579400      0.43683536      2.98923942
  H      8.00568933     -1.11166682      3.11791626
  O      3.03224569     13.10696167      4.86639845
  H      3.07998584     12.32903184      4.30591111
  H      3.02459734     13.89594566      4.31954767
  O     -1.34613132     -0.18168287     12.82467703
  H     -2.06132402     -0.70399861     13.19519784
  H     -1.45297428      0.73675277     13.08286412
  O      2.48373235      5.58301377     16.72789298
  H      2.76984015      4.92438257     17.36503290
  H      1.57663142      5.83618485     16.91409798
  O     10.98566233      2.41461992     13.37137076
  H     11.88248237      2.27317818     13.05942835
  H     10.37578699      2.35189654     12.63264358
  O      1.47104729     11.49661201     15.65678069
  H      1.38524963     11.77388414     16.57185387
  H      2.00825777     10.70227700     15.61164984
  O      1.17233099      3.92255251     11.54021988
  H      0.74011918      4.74455049     11.78335003
  H      0.65854113      3.18104026     11.86851787
  O      6.43366075      2.75114568      5.74576124
  H      6.30883707      3.02188225      6.65829659
  H      6.65682546      1.81791785      5.71604048
  O     -0.44005735     -1.89113596     16.01013448
  H     -1.27750685     -2.33141097     15.84754219
  H     -0.56479044     -1.19480852     16.65911041
  O      3.04166668     12.96330280     17.96925355
  H      2.34188505     12.82167058     18.61100583
  H      3.87802093     13.07628200     18.42679839
  O      1.48156838     -0.94031094     17.32638615
  H      1.94872025     -1.15437031     18.13727931
  H      0.96387463     -0.14230223     17.45590561
  O     11.85262922      2.29489105     10.81943975
  H     11.02848473      2.78270490     10.75293022
  H     12.56548055      2.89871623     11.04043328
  O     -1.28280686      6.95349563     12.27295839
  H     -1.44854500      6.47057219     11.45999110
  H     -1.11955780      7.87733294     12.06930580
  O      3.80022005      1.89925402      0.86306442
  H      3.34221776      1.07131243      1.02538084
  H      4.44629877      1.77631939      0.16372947
  O      2.66986941     -1.26718249     23.37421823
  H      2.34175105     -0.53431524     22.84805863
  H      2.41266036     -2.09633589     22.96440347
  O     -2.68991911      3.30702134      9.21022960
  H     -3.44985295      3.87594269      9.06729933
  H     -2.92851561      2.59903497      9.81307869
  O      1.46235754      6.94181813      5.19124199
  H      1.28496562      6.08707184      5.59066769
  H      1.60793862      7.59372856      5.88074830
  O     -0.64203772      4.26120080      6.69539406
  H      0.26992723      4.21290670      6.99134610
  H     -1.22801479      4.06035477      7.42880510
  O      0.04870210      5.19921520      8.74883547
  H     -0.13727996      5.93974493      9.33075162
  H      0.66507501      4.60132215      9.17803045
  O      8.34312501      1.75554722      8.03658026
  H      7.61721828      1.46943169      7.47729739
  H      8.54279854      2.67703720      7.85606236
  O      5.28714766      5.43286433     -4.05292590
  H      5.14041446      6.36448383     -4.23224259
  H      4.97864401      5.22437139     -3.16807778
  O      4.18593772      3.32764510     19.35456973
  H      3.33491435      3.68823069     19.61406393
  H      4.15161011      2.36886831     19.38875587
  O     -2.55949818      2.13746259      7.07358614
  H     -3.27731487      2.04438625      7.70420171
  H     -2.58986732      1.41313847      6.44427518
  O      5.03111599      1.64783323     15.30051402
  H      5.93364315      1.75671518     14.99198615
  H      4.55742290      1.06224204     14.70528481
  O      9.11933899      5.19848903     13.22705002
  H      8.29869101      5.12082112     13.71909126
  H      9.51116129      4.32889353     13.11805942
  O      5.74698482     11.39577771      2.62761298
  H      5.10033559     12.06029594      2.87633028
  H      6.34202063     11.23629284      3.36388532
  O     -0.42110962     11.10884808      6.17034240
  H      0.16837861     10.47875184      5.74953086
  H     -0.04088012     11.98869906      6.11660434
  O     10.46939797      5.01656209     -0.52233688
  H     10.08113117      4.89450789     -1.39179169
  H     11.01420215      5.80699756     -0.52276124
  O      8.45617295     -2.66896412     12.36652585
  H      8.96296513     -1.87233903     12.19288785
  H      7.57781805     -2.57846000     11.98982745
  O      6.45595242      4.10263712     -1.86092298
  H      7.35821107      4.08789829     -1.53333773
  H      5.84781505      4.17604889     -1.12174799
  O     -1.27874762      4.78181223      4.75816704
  H     -0.32497381      4.89092022      4.76147688
  H     -1.67806080      5.43531254      5.33703346
  O     -3.01254419     -0.91741889     10.21563428
  H     -2.23243401     -0.89971589      9.65642526
  H     -3.79705411     -1.00113606      9.66870136
  O      2.06861737      1.18035670      4.91235796
  H      1.68088877      0.90394284      5.74594173
  H      1.51927965      1.85867491      4.51271753
  O     -0.69263347      9.15239435      7.17448461
  H     -1.32613116      9.81256359      7.46509991
  H      0.18873566      9.40812204      7.45625010
  O      5.41938355      0.04004255      5.20347056
  H      5.50327228     -0.63622264      5.87965698
  H      6.11522440     -0.07069004      4.55144003
  O      7.69824542     -1.61680252      1.08118044
  H      7.20591266     -1.79960793      0.27756944
  H      8.63716476     -1.59065435      0.88282030
  O     10.27127955      4.62851180      7.72629211
  H      9.37528859      4.57388290      7.38597477
  H     10.86163672      4.13084243      7.15585051
  O      5.41310614      9.07284950      1.43643838
  H      5.28504034      8.30136642      0.87965027
  H      5.56306661      9.84446135      0.88532405
  O      3.97710824      7.16133229     23.93320505
  H      3.40473400      7.28494006     24.69393421
  H      3.44348314      7.09679925     23.13779337
  O     10.59326154      7.58934125      1.27788305
  H      9.86361780      7.81864040      1.85809156
  H     11.32242171      7.24681134      1.79999291
  O     -0.29848849     -0.01686253     19.28395275
  H     -0.84854399     -0.38183013     18.58693223
  H     -0.85146385      0.25022819     20.02184217
  O      8.90788397      5.51361810     22.34764869
  H      9.63647566      5.70406186     22.94303539
  H      8.57499830      4.63001434     22.52094474
  O      9.01082399     10.54113441      3.31226184
  H      9.87996294     10.21212552      3.07153244
  H      8.84444760     11.36977463      2.85698798
  O      6.04246321     -2.32097324      3.05618284
  H      5.57422962     -1.84622124      3.74681143
  H      6.75290639     -2.83556098      3.44614430
  O      1.15323752     -1.63434989     14.52998675
  H      0.29022620     -1.41854379     14.16910008
  H      1.30193136     -1.12614886     15.33075005
  O      1.35159929     11.12175109     13.67920222
  H      1.66481716     11.46954409     12.84102884
  H      0.92111801     10.27598238     13.53442253
  O      7.69281261      8.39927072      5.67101435
  H      6.82791703      8.78993855      5.81570119
  H      7.87474011      8.36342350      4.72909218
  O      3.41970514     -0.13855778     12.60544994
  H      2.83896756      0.46165305     13.07883227
  H      2.93820778     -0.93717144     12.37746631
  O     12.23811095      5.00297447     12.29203237
  H     11.59061955      4.44017244     11.86120901
  H     12.90544265      5.26922647     11.65533913
  O      6.11112505      4.66705417     17.57590430
  H      6.73977266      4.11702953     18.04905871
  H      5.22720396      4.50766268     17.91484068
  O      1.25011941      4.01690032     20.87328143
  H      1.44650831      4.90648028     20.57049620
  H      0.58769287      3.62259070     20.30117043
  O      1.29101074     -0.82887651      1.90993889
  H      0.57266734     -0.52028717      1.35284341
  H      2.00084147     -1.16739541      1.35935257
  O      9.24955437      1.94358267      6.13083296
  H      9.84225162      1.45692476      6.70830508
  H      9.53678114      2.85782829      6.07377385
  O      4.06640797      6.21589369     20.90882465
  H      3.31029653      5.94192100     21.43307122
  H      4.59989885      6.83357371     21.41425405
  O      6.63922048      0.26184684     19.29956004
  H      6.58973696      0.55376729     20.21275981
  H      7.53398390      0.38146973     18.97292755
  O      4.38517071      1.76679807      8.95490703
  H      4.30145703      2.27706590      9.76374494
  H      4.67639243      0.87677074      9.16619184
  O      0.95704840     -1.29043592     20.58869615
  H      0.51170259     -2.08898497     20.29614439
  H      0.46262836     -0.89354324     21.30954637
  O     -3.91061673      3.46962601      4.26144027
  H     -3.68155649      2.64254298      3.83124837
  H     -3.10948675      3.95888255      4.46248456
  O     -1.42936216      5.72953973      0.35576480
  H     -2.08572657      6.15108831     -0.20377300
  H     -0.55741806      5.84802089     -0.02800037
  O     10.85721580      4.09478798     18.91264965
  H      9.91158394      4.20783691     18.79181788
  H     11.15014099      4.62205087     19.65950216
  O      0.83572530     -2.15072756     -2.40113889
  H      0.71102056     -1.41608379     -3.00640517
  H      0.98535530     -2.95627711     -2.90143959
  O     12.03583440      0.68669684      6.93704678
  H     11.86738966      1.62200034      6.80127591
  H     12.85825611      0.57595982      7.41970592
  O      3.45899268      9.37250509      3.51654162
  H      3.18437495      9.45562705      2.60042163
  H      2.75082681      8.97510196      4.02856883
  O      3.66261659      4.05439041      8.79857928
  H      2.86971726      3.56172247      9.02260821
  H      3.42207347      4.94468198      8.53189608
  O      2.57295244      6.52063638     12.49900198
  H      3.16473590      7.05683368     13.03181039
  H      2.02386334      5.98205666     13.07348701
  O      9.86222892      9.39622036     13.89002773
  H      9.84640268     10.30637378     13.58511746
  H     10.00892437      8.81068811     13.14354771
  O     -0.84538160      4.24387652      1.63310656
  H     -1.70519123      3.83819637      1.76633951
  H     -0.27443393      3.63596632      1.15764472
  O      8.00612519      6.12399205      5.94813850
  H      8.01550837      6.63165370      6.76287257
  H      7.13673276      6.18102776      5.54502099
  O      5.89890577      6.53501002     12.72062701
  H      5.21904495      6.98307174     13.22918375
  H      6.70178333      7.06128492     12.72535601
  O      1.10289693      8.22770903     19.90994865
  H      1.35235182      8.96359380     20.47372686
  H      0.42418706      7.70645226     20.34497083
  O      9.66690890      6.86874825     14.58039001
  H      9.75826654      6.06620824     15.09921881
  H      9.52139706      7.61468616     15.16690766
  O      9.29925872     -1.40242406      7.98040693
  H      9.52208224     -0.65311610      8.53762077
  H      9.35988296     -2.21201018      8.49274960
  O      4.97450120      4.21008329      1.25256544
  H      5.54488360      3.50270838      0.94291295
  H      5.08120196      4.97853154      0.68714327
  O      4.15606286      5.02029792     15.20765116
  H      4.51069047      4.30619189     14.67296261
  H      3.79152422      5.69896565     14.63483208
  O     -1.46638874      5.60904230     21.59473240
  H     -1.86514001      6.28272369     22.15038591
  H     -2.15502974      5.06074704     21.21165814
  O     -1.83370687      7.54488019     -1.66040620
  H     -2.72525569      7.74617856     -1.36677434
  H     -1.20485982      7.82701710     -0.99216212
  O      8.48479595      3.04817911     14.52694917
  H      9.40011221      2.78090556     14.63812917
  H      8.11692706      3.29379978     15.37897204
  O     -1.20196620     -1.53507064      1.67621890
  H     -1.49765569     -0.85494719      2.28580878
  H     -1.13520827     -2.37337484      2.13924098
  O     10.42422287     -2.86276210      6.23089595
  H      9.53667486     -2.86468752      5.86503419
  H     10.71252188     -1.95733602      6.36759744
  O      2.41240601     -4.39221199     15.97748624
  H      2.30617936     -3.62465906     16.54421228
  H      2.53800062     -5.17516731     16.51860264
  O      3.28481110     12.69031010     13.81297065
  H      3.82347234     13.42507978     14.11555552
  H      3.74479483     11.86481028     13.98198255
  O      3.66259182      0.04158010      7.35391236
  H      3.04716144      0.62732974      7.80083833
  H      3.41363998     -0.04054810      6.43039845
  O      3.08717607     -3.55185528     18.95487737
  H      2.94681483     -4.26070834     19.58687900
  H      3.30593881     -2.74318542     19.42370135
  O      6.29438332      8.24893978     15.76307282
  H      6.94600140      7.65516779     15.38303505
  H      5.62421905      8.45191861     15.10635411
  O      1.75054114      4.49325497     15.12828157
  H      1.46676015      5.38948068     14.93373636
  H      1.02605738      4.00768010     15.52945526
  O      3.45161259      3.29339487     12.27360899
  H      3.50834136      2.37785196     11.99047822
  H      3.35051688      3.86061294     11.50572663
  O     -1.72897677     -3.57790106      9.56429700
  H     -1.16741357     -3.40120120     10.32260033
  H     -2.58069578     -3.90300105      9.86510379
  O      8.32716009      6.44291324     16.75420915
  H      8.26829151      5.48506661     16.72843460
  H      7.54295224      6.80091788     17.17664344
  O      4.42292566     -2.72461051      1.78807129
  H      4.68226077     -3.32903031      1.08877021
  H      3.76396640     -2.11168879      1.45385629
  O     10.35805132      9.69458723      0.01684435
  H     10.18284631      8.90420494     -0.49910046
  H      9.60301714     10.28518816     -0.03525104
  O      7.31039837      8.43705715      2.73295192
  H      7.82813875      7.84691993      2.18042775
  H      7.23487743      9.29296507      2.30479514
  O      6.30805669      0.22220434     13.67993756
  H      5.52490949     -0.13983051     13.25897291
  H      6.64356342      0.95411219     13.15711239
  O      3.02391445     -5.08505156      4.64054921
  H      2.42990476     -5.13450972      3.88801591
  H      3.88598043     -5.42610141      4.39129584
  O     -2.15400665      6.47746755      8.15327205
  H     -2.85763785      7.10107551      7.95932297
  H     -1.51192770      6.48668000      7.43965467
  O      8.27878265     -2.96474077     14.82953375
  H      8.54247779     -2.16174024     14.37428104
  H      7.84109226     -3.55457639     14.21137433
  O      4.96330596     -0.18119201     10.91816940
  H      4.93189681      0.60585076     11.46696548
  H      4.99285787     -0.96088031     11.47746613
  O      1.79275047     11.71373375     10.75546076
  H      1.31582974     10.89762632     10.92313686
  H      1.22446353     12.46268899     10.94966688
  O     10.39990554      8.90668449      6.89098903
  H     10.78444143      9.01720231      7.76363900
  H      9.63004054      8.33621830      6.94994854
  O      2.02875562      3.22822710      6.95461659
  H      1.98775480      3.19735233      5.99598961
  H      2.66100731      2.57803430      7.26942945
  O     -0.15667039      1.43074085     22.52152946
  H     -0.90784661      1.11456463     23.02884287
  H      0.56823080      1.63609170     23.11646584
  O      9.15621798      4.08707153     10.13815688
  H      9.91419442      4.66051769     10.27317992
  H      9.41553261      3.33405318      9.60213514
  O      5.82023171     -1.66176536     14.61164981
  H      6.45951549     -1.86023146     13.92351649
  H      6.21203707     -1.06051738     15.24929347
  O      8.69166635      0.63546427     14.09310051
  H      8.96140390     -0.13982372     14.59086571
  H      8.74049631      0.44585402     13.15327946
  O      2.62244758      1.39852130     17.79924317
  H      2.43816577      2.15550126     18.36015453
  H      2.82010982      0.63484319     18.34634955
  O     -2.27503942      7.69449710     19.81174072
  H     -1.77802503      8.11470198     20.51743510
  H     -3.14495786      8.09571712     19.74957640
  O      0.55203620      2.44369926     -2.79167700
  H      0.40957718      2.03429180     -1.93511937
  H      1.47533336      2.69179380     -2.87869114
  O      7.33485130      8.45345974     22.00365206
  H      6.88872510      7.61183854     21.88429890
  H      8.24531859      8.37819311     21.70872114
  O     -2.36377873      8.21548095     16.79905909
  H     -1.91963220      7.50478268     16.33082642
  H     -3.05922630      8.57834687     16.24563249
  O      4.93795317      6.46689228      2.57589412
  H      5.65477274      6.50643089      1.93855088
  H      4.09844479      6.56348540      2.12037744
  O      2.14973537      2.34363601      2.08434329
  H      1.27341226      2.23025663      1.70910613
  H      2.34072420      1.61422464      2.67855061
  O      6.42157798      4.00611218     13.71035479
  H      6.18595775      4.54601418     12.95233834
  H      6.55434940      3.09815898     13.42823294
  O     10.40356231      1.19288365      3.80020680
  H     10.90444544      1.98129565      3.57857057
  H      9.78431679      0.99733737      3.09317310
  O      4.72706365      7.19371602     16.61944026
  H      4.46801550      6.31139408     16.89512497
  H      3.98299344      7.79203852     16.71928863
  O     10.96844047      4.24989461      1.96716235
  H     10.46967125      4.92305181      1.49845280
  H     11.69492919      4.66119274      2.44113280
  O      1.48183875      4.65921826     -1.87196317
  H      0.89505801      5.39349026     -1.67668645
  H      2.23279956      4.97537386     -2.37960821
  O      4.42019209     -3.25686956     16.59109955
  H      4.59074727     -3.46356943     17.51293799
  H      5.14188841     -2.72856879     16.24231204
  O     10.62712169      3.19980753     17.05055961
  H     11.17263174      3.42568411     16.29359292
  H      9.71282242      3.42679457     16.86580644