914
Energy =      0.00000000 au
  O      3.96463035     10.36103419      5.63280680
  H      4.88434952     10.10822648      5.74145719
  H      3.66650635     10.82981309      6.41572980
  O      9.36824703      6.42490773     11.28284590
  H     10.19552956      6.88527895     11.44178601
  H      9.21676117      6.35528830     10.33743320
  O      5.97539763      9.92921334     19.77366994
  H      6.27826748     10.68772278     20.27818286
  H      6.69845440      9.30711378     19.66512943
  O      9.41203798      1.09576794     -0.87084466
  H      9.89756788      0.62568435     -0.18902200
  H      9.14762722      0.48003289     -1.55827269
  O      0.42802913      0.10709085     24.07140021
  H      0.27779839      0.25448141     23.13475366
  H      1.06535160     -0.60161483     24.18610136
  O      6.88848161     -1.11327892     17.17386673
  H      6.87344498     -2.04311971     17.41213129
  H      7.14992417     -0.59136620     17.93600511
  O     -3.04700700      4.06769819     19.76174036
  H     -2.86124323      3.14790481     19.55907815
  H     -3.96764945      4.25887528     19.56817173
  O      4.08814672      2.74968024      4.25643314
  H      3.28590635      2.64443298      4.77308913
  H      4.61591509      3.46160600      4.62551615
  O      3.30900152      7.36894997     17.14373394
  H      3.25724465      7.88330893     16.33481114
  H      2.74554266      6.59538019     17.06820970
  O     -4.42734488      0.12151488     15.55301654
  H     -3.52118386     -0.01466816     15.83924440
  H     -5.02495057     -0.32318067     16.15858512
  O      0.95361003     -0.49537329      7.12380791
  H      0.63743645     -1.18279036      6.53296779
  H      0.42264110      0.29598025      7.00791327
  O      6.88898671     -2.52543755      3.02047595
  H      6.86724023     -3.39281315      3.43131248
  H      6.91331732     -1.84894922      3.70118996
  O     -2.33232478      9.06209564     16.71809821
  H     -1.39651535      9.26104485     16.63885219
  H     -2.72905110      9.03386677     15.84436406
  O     -0.46370243      9.42027827     18.52320587
  H     -1.24572956      9.96256807     18.64952038
  H     -0.25952954      8.95738252     19.33907410
  O      6.35807688      0.31880284      3.02684205
  H      5.97263915      1.19758702      2.99898301
  H      7.19070304      0.31877657      2.54899932
  O     -2.67927903      1.64851256      3.73315575
  H     -3.21964151      2.31314426      4.16659905
  H     -2.67485175      0.84583292      4.25973508
  O     -2.46456955      1.23406725      6.54007911
  H     -2.85531193      0.73692801      7.26241766
  H     -1.70641035      0.75644476      6.19559198
  O      2.02495301      5.62153557      7.93760491
  H      1.35292658      5.08964713      7.50508304
  H      2.26884940      6.35487232      7.36810358
  O      6.95781440      8.23053503      8.39911365
  H      7.52255622      7.67352613      8.93986106
  H      7.40826470      9.05723325      8.21132496
  O      1.89521499      5.73998378     12.23541798
  H      1.33882796      6.51067330     12.10098906
  H      2.81092851      5.97209590     12.06455920
  O     10.69692190      5.84764180     13.10685163
  H     11.58437590      6.17259625     12.93823960
  H     10.17763458      6.53713243     13.52702225
  O     -1.87596994     10.05622866      1.99072514
  H     -2.35500193      9.35833724      1.53787205
  H     -1.50239104      9.71203143      2.80532141
  O     10.33200321      0.69706145      8.20729104
  H     10.88165638      1.27710755      8.73929473
  H      9.73396649      0.20951896      8.77847788
  O      4.03746204      6.17787696      3.92491706
  H      4.60406469      6.56120214      4.59843264
  H      4.26721868      5.25409975      3.80062885
  O     11.34771646      4.01197235      6.15957043
  H     11.87564318      3.54279722      6.80977661
  H     11.31692569      4.94474153      6.38450060
  O      9.09793078      4.07794464     10.90922562
  H      8.31007002      3.83747210     10.41622624
  H      9.78081412      4.36844124     10.30022473
  O      5.21309630     -2.60644534      4.47031612
  H      4.77530766     -2.10551828      3.77820833
  H      4.99737468     -3.53728284      4.37754903
  O      8.89423689      9.47011222      5.15206113
  H      8.27397824      8.85409410      5.54879893
  H      9.00051930     10.23219895      5.72610631
  O     12.72026428      6.89740733     16.83846104
  H     12.16863667      7.44957441     16.27951694
  H     13.21411358      6.28112318     16.29265272
  O      2.49692073     -3.59367196     12.70192776
  H      3.31132449     -3.80930880     13.16219647
  H      1.89081966     -3.16178612     13.30832376
  O      6.98727318      7.69656499      3.38102506
  H      7.87900275      7.40259017      3.18103210
  H      7.02465674      8.50254198      3.90122077
  O      7.66540474      7.12278036     18.63185000
  H      6.75944252      6.83182822     18.50465204
  H      8.26474452      6.48954974     18.23009037
  O     -2.54353175      6.33725690      4.99117433
  H     -1.88710644      5.99206446      5.60072170
  H     -3.27763753      6.70753848      5.48673488
  O      4.46773609      3.36096676     20.71320248
  H      5.32481432      3.74407413     20.91381567
  H      4.12801243      2.91108802     21.49024622
  O      9.54339804      8.40671392      7.21128511
  H      9.58652362      9.33208974      7.46311793
  H      9.41844977      7.86676956      7.99515246
  O      2.90485746      0.90414759      0.33418418
  H      3.18679313      1.17113317      1.21215399
  H      2.29026969      0.17001366      0.40439274
  O     10.55762719     -1.93417775     19.53883822
  H     10.69489124     -1.03242669     19.23949961
  H     10.98700086     -2.54200471     18.93238572
  O      9.24171705     -0.51406560     22.70530745
  H      9.14699050     -1.37475428     22.29076929
  H      8.38098337     -0.19980356     22.99162354
  O      1.53557954      5.29312746     20.28686218
  H      1.46314895      4.42313433     20.68619382
  H      1.48887868      5.21207497     19.33143059
  O      0.30346497      0.85840998     10.91717659
  H     -0.03100164      0.63457376     11.78874382
  H      1.06521477      1.43603100     11.00487607
  O      0.30175956     -0.86763593      2.57366979
  H      1.24667446     -1.02456627      2.50957065
  H      0.10487007      0.02588490      2.28305825
  O      5.06039551     10.04936843     13.88763692
  H      4.73999280     10.82017282     13.41350329
  H      4.56493744      9.27470809     13.61191486
  O      7.34782540     -4.43404284      5.81378835
  H      7.97499269     -4.66890361      6.50161217
  H      7.57880184     -3.57676994      5.44864036
  O      2.27589510      5.68154088      2.95965822
  H      1.79854425      6.41636487      3.35179326
  H      1.80648126      4.86318109      3.13724736
  O      3.42313629     -0.91139702     16.15942569
  H      3.24007875     -1.80461969     16.45983074
  H      4.35333572     -0.71353800     16.29050137
  O      4.33151439     13.29826383      9.98421749
  H      3.93819645     12.65486894     10.57830841
  H      5.21410013     13.51950780     10.29031147
  O     -3.22450028      7.54882754     12.97209277
  H     -2.78794295      8.35975349     12.70113741
  H     -3.94955767      7.35932101     12.37211023
  O      0.94344565      7.64798556     17.72907860
  H      1.38025171      8.28003924     18.30467274
  H      0.49515154      6.98652599     18.26115343
  O      4.06067875      3.23470343      2.30801177
  H      3.71293266      4.06743199      1.98054298
  H      4.43262603      2.73370013      1.57845648
  O      5.01038192     -0.89858155      2.11107101
  H      4.89443906     -0.03830832      1.70108658
  H      5.04242218     -1.57578577      1.43138883
  O     -0.97721951      6.12606816     16.29080482
  H     -1.06184427      7.08107919     16.33971903
  H     -0.15240804      5.85601162     16.70111629
  O     10.15153909      6.82048274     16.08625625
  H     10.28148298      6.02494159     15.56488416
  H     10.19145690      7.58944429     15.51292850
  O      5.09004128      3.14439960      8.84657797
  H      5.37576736      2.27865452      8.54583542
  H      5.01420089      3.73601877      8.09435792
  O     -0.62303602     -3.94303486     14.21463039
  H     -0.62704541     -3.37525721     13.44054224
  H     -0.44376077     -3.41667482     14.99719381
  O     -1.33889130      1.22412924      0.41719779
  H     -1.47700963      0.70247437      1.21117482
  H     -0.40276940      1.41093205      0.31531299
  O      3.96440937     -1.18386859      6.32460898
  H      3.95926855     -2.09205317      6.01352323
  H      3.32813123     -0.66951320      5.82242509
  O     -0.65968316     -3.73096678     11.14206932
  H     -1.60498244     -3.74979251     11.30836688
  H     -0.22235981     -4.37370432     11.70530706
  O      9.46422222     -0.00721528      6.47542023
  H      8.94723062     -0.60454126      5.92996504
  H     10.02682645      0.53244053      5.91519876
  O      1.31519288     -0.69418872     15.11424789
  H      1.62169611     -1.04582023     14.27519422
  H      1.46478839      0.25377980     15.13826577
  O      8.81351498      4.07520417     -2.12872182
  H      9.08521500      4.79142680     -2.70734453
  H      8.02655451      3.65641282     -2.48496196
  O      6.72085934      9.58082161     -1.01756166
  H      6.49958673     10.35329012     -1.54285285
  H      7.10715349      8.90840713     -1.58345528
  O     -2.38169777     -0.14729257     18.09549059
  H     -2.12971325     -0.86597129     17.51102100
  H     -3.26172713      0.15949075     17.86520311
  O      1.01175036      2.45779320      6.30039708
  H      1.36613770      1.74990722      5.75734362
  H      1.61422850      2.63742857      7.02589776
  O      4.49156534      8.79000086      3.96850781
  H      4.53305641      8.09144755      3.31131547
  H      3.64995686      8.74773342      4.42840850
  O     -1.98643878      4.76850675      9.61038531
  H     -2.69890942      5.19318161     10.09374529
  H     -1.36095738      4.38723277     10.23087155
  O      4.35642711      2.29977183     -2.95365945
  H      3.92533685      2.64551300     -3.73865896
  H      4.86801326      1.52125648     -3.18559364
  O     10.70444952      9.75680139     11.32367121
  H     11.18917210      9.20478416     11.94166878
  H     10.12500327     10.34864656     11.80901783
  O      2.01566902      9.34443775      8.72133803
  H      1.77838812      8.51755352      8.29523916
  H      2.05632888     10.04331678      8.06444009
  O      3.05553404      7.05761865     20.09515358
  H      3.52066421      6.27031094     20.38738722
  H      3.42141912      7.35399550     19.25855997
  O     10.68063785     -3.10418305     13.34985132
  H     10.52957853     -2.16292841     13.46308025
  H     10.49255529     -3.35195125     12.44164657
  O      7.70323223      7.59225746     16.17206163
  H      7.02522455      7.88551123     16.78517484
  H      7.72266022      6.63269074     16.15074827
  O      7.41921140      4.11394667      7.53951442
  H      7.03400577      4.24835818      8.40850819
  H      7.24476682      3.21639141      7.24700178
  O      3.03623583      3.78107924     -0.79114712
  H      3.51451856      3.65853517      0.03215633
  H      2.89250572      2.92844160     -1.20822110
  O      4.16363846      0.96375658     17.42308844
  H      4.67630159      1.32384145     18.15049163
  H      3.27171831      1.31751358     17.45365697
  O     -0.89496184     -0.40193972     -0.69744485
  H     -0.16691823     -0.07243893     -1.22940512
  H     -0.78365238     -1.34405095     -0.55035090
  O     13.82188769      3.67973700      8.43969169
  H     12.88675527      3.55897924      8.62009380
  H     14.16397410      4.39224337      8.98458763
  O      6.95474221     12.19328223     17.47075843
  H      7.79795621     12.62721606     17.32145477
  H      6.37024626     12.78504883     17.95010881
  O      3.55501036      0.74691614     13.66333656
  H      3.59960607      0.21989697     14.46449948
  H      3.77908956      1.65807650     13.86625361
  O      2.12838733      3.85798022     10.47150523
  H      1.41408559      3.52920300      9.92079789
  H      2.36137021      4.74781087     10.19669551
  O      4.38778930      8.43554382      9.52361205
  H      5.03600459      7.81439070      9.18363302
  H      4.06607443      8.98733982      8.80693868
  O      7.90364752      2.84914855     18.95089431
  H      8.00734191      2.59658083     19.87125133
  H      8.25616239      2.15684548     18.38693533
  O      4.83821885      5.83633056      8.42263584
  H      4.04752718      5.80916727      8.96639024
  H      5.61432870      5.86560332      8.98690228
  O      4.14972843      6.72852222     -2.26547880
  H      4.67425467      6.93727496     -3.04194162
  H      4.18572579      5.78376012     -2.09895920
  O     -0.29005241     11.97420804     10.82818262
  H      0.40358850     12.28377457     10.24112994
  H     -0.98226919     11.55387483     10.31266742
  O      1.23654823      2.70057479     22.05253052
  H      1.17333249      1.74497059     21.98601457
  H      2.05942904      2.93787469     22.48629999
  O      2.94562399      9.04548545      1.63109963
  H      3.64150247      9.55853794      2.04838885
  H      2.59037779      8.41481149      2.26169498
  O      0.21754973      2.37834426      3.64188908
  H      0.82220151      1.63781076      3.55467465
  H      0.66142581      3.10374383      4.08727597
  O      7.12262364      5.90383203      4.48263279
  H      7.00430732      6.56586357      5.16769883
  H      7.90290025      5.37891885      4.67559543
  O      7.79508400     12.56811063     13.38825821
  H      7.31409233     11.73792852     13.42057973
  H      8.02782640     12.76841694     12.47869328
  O     -0.09091930     -1.13489931     16.85618105
  H      0.85535243     -1.12752825     17.01778391
  H     -0.32514832     -1.92263843     16.35999172
  O      8.37128728      1.51119480     21.63220760
  H      8.66105590      2.14308690     22.29428503
  H      7.42050010      1.57951849     21.51847273
  O     -0.38980703      6.95574161     13.43700393
  H      0.40304526      6.86339395     13.97034919
  H     -1.15523125      7.03241445     14.01132705
  O     10.75651366     -1.55278430      5.52055937
  H     10.87890581     -1.24890130      4.61818734
  H     10.12836775     -2.27866695      5.53183285
  O     -2.77114001      2.32391090     10.18562199
  H     -2.44262088      2.39473167     11.08487701
  H     -3.25449829      3.12130399      9.95730417
  O      0.28305906      1.34470357     17.39611590
  H      1.01498324      1.06614588     17.95135693
  H     -0.53617492      0.98033903     17.73918172
  O      5.99713608      4.47799095     17.02377822
  H      6.37412657      5.35201421     17.14852401
  H      5.92444597      4.03616678     17.87295875
  O     -2.78405284      8.49658291      7.87467074
  H     -3.37265337      8.71099092      7.14722410
  H     -1.94969386      8.17308598      7.52711524
  O      3.04042885     -4.88755599      7.07380151
  H      2.62326819     -4.13252321      6.65249106
  H      2.84468088     -4.87875029      8.01359149
  O     10.20037979      4.41381781      7.98965790
  H     10.70913538      3.83356019      8.56068228
  H      9.28080399      4.40894528      8.26526016
  O      2.53767452     -3.00958309      4.51621037
  H      2.68041102     -2.07428906      4.35357156
  H      1.77694231     -3.12249275      5.09078666
  O     -1.24841087      9.27198105     21.55297468
  H     -0.82452894      9.99624466     21.08674905
  H     -1.35606625      8.52682267     20.95736633
  O      2.17248657     -3.68884568      9.85949709
  H      2.39189173     -3.22924776     10.67327294
  H      2.05393177     -4.62394172     10.04154149
  O     -4.75494087      2.90358847      7.41439493
  H     -4.12177046      2.58762762      6.76565463
  H     -4.35738721      2.88041037      8.28790158
  O      5.54789054     -0.46341587     -1.01381242
  H      5.98919779     -0.63404928     -0.17850879
  H      5.12665029      0.39869466     -0.98344640
  O      0.77793921     11.15265972      6.12872562
  H      0.51725034     11.53877300      5.28934618
  H      1.61613057     10.69629103      6.02498139
  O      1.50301988      3.19039802      1.13148973
  H      0.93476045      3.86552556      1.50948976
  H      1.27465598      2.33487449      1.50233934
  O      4.59469779      9.05137560     17.66076065
  H      5.05718265      8.26472978     17.95891516
  H      5.17303697      9.81328824     17.74208054
  O      4.58957336      9.93284953     -0.90833071
  H      4.13668995     10.75691876     -0.71492304
  H      4.33539591      9.62472936     -1.78128877
  O      5.52404898      4.85456529      5.79595991
  H      6.44876764      4.60384141      5.85623370
  H      5.32527170      5.51011285      6.46852588
  O     -1.46211199      3.37319610      1.24790414
  H     -0.94851929      2.73042465      1.74254280
  H     -2.17517345      3.70546474      1.79812311
  O      5.57809251      8.52148276      0.93293907
  H      5.88014770      8.19669712      1.78433613
  H      5.87803076      9.42508546      0.80989764
  O      1.20946040      1.51482817     13.10920746
  H      1.57381343      0.62728524     13.14259071
  H      0.59856184      1.63812396     13.83941367
  O      2.35523817      8.03461474     10.26551708
  H      1.82437740      8.31339823     11.01522810
  H      2.60618692      7.11448815     10.37502402
  O     -2.54299985      5.93965598      0.84640896
  H     -2.65357007      6.31405621     -0.03063078
  H     -1.64867649      5.60375085      0.94103170
  O     -2.28016820      3.17653977     -1.04517602
  H     -3.22314152      3.23585989     -0.87522766
  H     -1.92220919      4.05754344     -1.17669741
  O      6.17311938      4.67508702     14.98751486
  H      7.04231708      5.07975654     14.93916246
  H      5.87311437      4.45355957     14.10291179
  O     -1.73093674      0.28695052      9.79035992
  H     -2.48941048      0.18846592      9.21017169
  H     -1.28062492      1.11124854      9.59198642
  O      0.92912666      1.88915020     -2.13666160
  H      1.61288534      1.58606705     -2.73850433
  H      0.15492392      2.15425527     -2.63858730
  O     -1.73410856     10.74290918     12.06830569
  H     -1.06674794     11.21641534     12.57032335
  H     -2.45683158     10.49541624     12.64969944
  O     -3.70709519      7.55438850      9.60851169
  H     -4.06406306      6.87512850     10.18538239
  H     -3.24229693      8.20950375     10.13423651
  O      7.90874965     11.23470474      4.34293254
  H      8.06310965     10.61240591      3.62842770
  H      8.68158339     11.79327394      4.45396614
  O      3.96692165      7.23494940     13.53800493
  H      4.16288195      6.29536753     13.55763820
  H      3.27194961      7.43064448     14.17071126
  O     -1.08547588     10.05311086     14.19886556
  H     -1.04265406     10.72675750     14.88148295
  H     -0.69450208      9.23977437     14.52631517
  O      7.40505273     -3.77499764     15.03524463
  H      8.11003501     -3.81421563     14.38481250
  H      6.56602735     -3.96783846     14.61045195
  O      0.89590909      5.38638793     -0.76407273
  H      0.38625902      5.04518896     -0.02553358
  H      1.78745680      5.58937606     -0.47160305
  O     10.47974406      3.46971845     -0.19600765
  H     10.97037149      3.11178371      0.54747567
  H      9.61276188      3.75631104      0.10031412
  O      4.93055475      2.20723116     15.72733601
  H      5.29617143      2.50622415     16.56311567
  H      5.33192938      2.69956564     15.00754078
  O     -2.50876762     -1.34782458      5.35812866
  H     -2.56501519     -2.28630241      5.55228214
  H     -2.97465767     -0.85198434      6.03539444
  O     -0.01238001      3.15001370     19.61732909
  H     -0.28470588      3.64692608     18.84239896
  H      0.66342937      2.51482114     19.36951443
  O      5.34204332      7.70048928     20.11757671
  H      5.47128401      6.80765939     20.44583215
  H      4.77642977      8.18568404     20.72277698
  O      4.12933599     -0.49155108     22.47939766
  H      3.34610923      0.06346024     22.49027307
  H      4.42687934     -0.64358412     23.37937206
  O     12.19178657      5.78315641      8.50450088
  H     11.44166996      6.13116350      8.01683691
  H     12.91198199      5.59990141      7.89677053
  O     -1.82005948      3.06287711     22.31414032
  H     -2.56307471      3.24649191     21.73464573
  H     -1.05485898      2.82106388     21.78726788
  O      7.11429219      7.46763549     14.14008093
  H      6.57219853      6.73151254     13.84706649
  H      8.03144622      7.30168355     13.91010604
  O      6.28620590      3.91752440     10.25066782
  H      6.09119639      4.72016339     10.73989369
  H      6.45261105      3.19964913     10.86594372
  O      2.62284865      0.14056236     10.64489415
  H      2.98012973     -0.12177006      9.79334736
  H      3.33248787      0.18630027     11.28981293
  O      6.84409021      3.00705427      3.37506723
  H      6.23176818      3.74432658      3.43066641
  H      7.11054488      2.74441689      4.25916198
  O      4.75716777      7.93611468      7.09034896
  H      5.11517638      7.49941592      6.31399593
  H      4.08595184      8.56773745      6.82179385
  O     -1.02115713      3.00557572      8.64677542
  H     -1.67845617      2.51472006      8.14815863
  H     -0.46480818      3.50175562      8.04189415
  O      7.45300844     -2.10992692      7.04566466
  H      7.45698256     -1.90817614      7.98421718
  H      6.57344326     -1.96322333      6.69007619
  O      1.03898594     11.73155380     14.27321907
  H      0.95140639     11.31613832     13.41219653
  H      0.98708118     11.06172850     14.95895952
  O     14.21049268      1.27416223     12.67301193
  H     13.68839812      1.18052045     13.47316722
  H     14.29450094      2.20464968     12.45225025
  O     -1.89488471     -1.96976776      7.58948731
  H     -1.79896554     -1.98620026      8.54454202
  H     -1.27365749     -1.34044934      7.21580954
  O     10.08305955      7.87007223     17.82571097
  H      9.41835576      8.41676423     18.25103054
  H     10.75321046      7.62309614     18.46719408
  O     -1.60856951     -2.92045072     18.05413600
  H     -2.42220406     -3.01309940     17.55312199
  H     -1.79985366     -2.99248084     18.99212430
  O      1.09471206      9.47831297      3.70467858
  H      0.55137535     10.22120212      3.43172999
  H      1.99604995      9.77607207      3.84795989
  O      5.48584433      3.98367471     -1.26839040
  H      5.26424286      3.16052463     -0.82689665
  H      5.44281861      4.70683749     -0.63848216
  O      0.11877954      3.49071739     15.83738893
  H      0.32025001      2.56184534     15.70245799
  H      0.14102106      3.69036976     16.77613504
  O      2.60621382     -1.86294453     20.40343623
  H      3.23878255     -2.49059334     20.76052693
  H      2.27480934     -1.30453083     21.11050427
  O      3.58697545      9.33884928     11.62085168
  H      4.15081649      8.56637298     11.53740320
  H      3.56734796      9.81292370     10.78630497
  O      5.97581067     11.79542800     11.68505189
  H      5.33074800     11.20807759     11.28441033
  H      5.54820137     12.32941443     12.35855674
  O      0.37319033      5.30071684      9.24190557
  H     -0.28626201      5.50652002      8.57529650
  H      0.72200373      6.11585104      9.60998905
  O     -5.01822322      1.03859215      9.79695151
  H     -5.45960913      1.65996262     10.38062711
  H     -4.19909428      0.74467803     10.20221966
  O      9.12841950      0.42020518     19.47547760
  H      9.82162980      0.96111234     19.86080723
  H      8.61720293      0.00784812     20.17563421
  O     13.05463905      2.36765878     10.73719387
  H     13.41271085      3.23502438     10.53455752
  H     12.85886399      1.90295496      9.92029577
  O     -5.06201267      1.99953909     17.54054347
  H     -5.69770147      2.59580941     17.13809912
  H     -5.22484805      1.94759084     18.48520532
  O      7.16511499      9.38356419     13.29319843
  H      6.47178648      9.31136709     12.63313543
  H      7.99062834      9.05696508     12.92787565
  O     -0.88666287      9.10652871      6.09146933
  H     -0.28690635      9.57379369      5.50533321
  H     -1.50326526      8.58655066      5.57086936
  O     -1.34057431      2.71659778     12.88793519
  H     -1.60968824      1.99771245     13.46446062
  H     -0.87934532      3.38375380     13.40152128
  O      2.42701787      2.86907817     12.20035333
  H      2.96959779      2.13960867     11.89200079
  H      2.76193245      3.18360778     13.04326694
  O      7.07704474     -2.47043560     10.31612544
  H      6.68332129     -3.28902722     10.00549768
  H      7.96333907     -2.38475616      9.95731993
  O      1.27306669      6.34084085      1.33317530
  H      1.42049198      7.15871695      0.85260848
  H      0.36291321      6.30705725      1.63662103
  O      9.70246343     -2.71940373      7.63403814
  H      9.34253447     -3.15913001      8.40779000
  H     10.12137925     -1.89714382      7.89860983
  O      5.06509057     -5.04922983     17.06243810
  H      5.57667481     -5.68235878     16.55348888
  H      5.16641813     -5.23429611     17.99896530
  O      7.08051924     10.99231604      7.20506067
  H      6.60414538     10.28058194      6.77135279
  H      7.49277228     11.55206472      6.54299659
  O      7.54207564     11.67500708      9.18914021
  H      8.29658203     12.19860350      9.46872366
  H      6.95084274     11.54187997      9.93366746
  O     -3.01715026      4.56531558      7.40154123
  H     -2.68313306      4.07942192      6.64395304
  H     -3.06881036      5.49932984      7.18579000
  O     11.29804028      2.76743160      3.78408354
  H     10.56715872      2.84225022      4.40199480
  H     12.11704745      3.00205556      4.22655259
  O      9.64382589     -0.87953332     17.35272751
  H      8.93371423     -0.85744823     16.70708543
  H     10.48802810     -0.93363111     16.89885964
  O      3.63425400      6.57154498      0.58597565
  H      4.46099125      6.44212350      0.11549122
  H      3.33105526      5.73151539      0.93814155
  O      1.42071836     -5.15724167     15.63214251
  H      1.82426310     -4.50053115     15.05988125
  H      0.79761382     -5.68378151     15.12608270
  O      7.03939043     -2.19595671     12.32352884
  H      7.95829674     -2.45325271     12.21860050
  H      6.91800315     -1.30104949     11.99794291
  O      5.81414062      5.85541175      2.68413976
  H      5.40852556      6.23953183      1.90341690
  H      6.70814283      5.57460565      2.47555405
  O      0.41688751     -1.50608896      9.54506426
  H      0.02741936     -0.98906406      8.83612152
  H      1.37390254     -1.47434364      9.47640235
  O     -3.43497552      4.02151668     12.31404945
  H     -4.16026619      4.18134247     11.70576567
  H     -2.61737627      4.34708912     11.93046887
  O      4.35730716     -1.98060428      8.72081962
  H      5.09936212     -1.72970592      9.27580110
  H      3.61478580     -2.23418834      9.27395356
  O      4.77037022     11.57288193      7.94084666
  H      4.62451123     12.50369709      7.75670462
  H      4.09823222     11.25744367      8.54939346
  O      7.24309785     -5.28491996      9.89784367
  H      8.06434287     -5.28652359      9.40069778
  H      6.50039563     -5.30227249      9.28982039
  O      4.45526988      2.53065695      6.41748604
  H      5.40212319      2.44927354      6.55330045
  H      3.99013280      2.06162178      7.11408744
  O      3.27073385      9.91437457     20.27771128
  H      2.86238773     10.02319958     19.41573068
  H      2.95526921     10.60030854     20.87065029
  O     -0.04138762      0.09226487      5.05331966
  H      0.68544813     -0.28699493      4.55384815
  H     -0.69065487      0.45698120      4.44748631
  O     -0.34165172      7.64032000      0.02909990
  H     -0.63342929      8.40304959      0.53378736
  H     -0.63727352      7.72560576     -0.88025926
  O      9.08713556      3.60732843      6.21928553
  H      8.56706664      3.59519519      5.41245153
  H      9.67599356      2.84925584      6.23240783
  O      7.29168891      4.66120440     12.56892710
  H      7.91338442      5.33998300     12.29624725
  H      7.66432526      3.79477518     12.38992276
  O      7.55128110      0.70982408      4.68178322
  H      7.12778823     -0.04389772      5.09910472
  H      8.09895578      1.16623124      5.32470230
  O     -4.04866054      7.07480974     16.95711403
  H     -3.41259885      7.11891094     17.67480519
  H     -4.36823432      6.17405463     16.86704274
  O     -3.75669030     -1.73924171     10.91479326
  H     -3.07497291     -1.33492687     10.37313755
  H     -4.34765965     -1.05929853     11.24650474
  O      2.67268571      4.12865208      6.02713310
  H      3.18972935      4.73945087      6.55740728
  H      1.92190050      4.59058962      5.64695514
  O      3.34612606     10.28609936     14.94011123
  H      2.65874752      9.77399047     15.37237876
  H      3.03476305     11.18259852     14.79539657
  O      6.45185621     -1.40870878     21.00017383
  H      5.55595942     -1.73191699     20.87973546
  H      6.92739410     -1.99574624     21.59250038
  O      8.64846509      6.08718355     -1.18274697
  H      8.48158734      7.03084174     -1.12564134
  H      8.78655562      5.73227176     -0.30151565
  O      6.94308693      3.74028235      0.57706353
  H      7.56909142      4.16477309      1.16827076
  H      6.07717831      3.71622897      0.99085538