914
Energy =      0.00000000 au
  O      5.95277724      4.14398692      4.05557034
  H      5.43421573      4.91681415      4.29101043
  H      6.30264272      3.73802971      4.85205819
  O     13.39986609      5.67576037     13.23369055
  H     12.87331805      6.40884992     13.56068728
  H     13.48338382      5.00989836     13.92016895
  O     -1.75842449      1.82432660     -2.79309595
  H     -2.31289635      1.85782807     -2.01012812
  H     -0.89222649      1.48368079     -2.55801839
  O     10.30857344      8.46532813      7.99616188
  H     11.16564879      8.82051337      8.24287080
  H      9.71873446      9.18548772      7.76151293
  O      4.35625228      0.67341176      1.90647160
  H      4.03222770      0.26736703      2.71377313
  H      3.72610872      1.33113934      1.60329916
  O     10.36545481      9.83685492     13.38943129
  H      9.69365785     10.18283165     13.98153681
  H     11.09699556      9.48779389     13.90382855
  O      7.04665346     -3.36758026      2.14731273
  H      6.12186416     -3.56335520      1.97987044
  H      7.59797810     -3.98879861      1.66593045
  O      8.30269525      3.94732334     14.77192491
  H      8.27742554      4.90422498     14.69911910
  H      7.40776478      3.60780175     14.84557642
  O     -1.22567851     10.13231344     14.72319663
  H     -1.02190014     10.88694428     14.16587565
  H     -1.33324809      9.35025525     14.17692401
  O      6.64236182      8.36695517     15.47011748
  H      6.31940142      9.12319334     15.96549654
  H      7.48156161      8.07858839     15.83643470
  O     -1.43114224      2.07092280      5.73208395
  H     -2.10863530      1.52666089      5.32418430
  H     -1.38135218      2.91494864      5.27739578
  O     -0.30494808      4.59492946     17.27614912
  H     -1.07890637      4.48822615     17.83400481
  H      0.46789792      4.74473768     17.82557296
  O      8.00196983     10.74361218      6.03995956
  H      8.09959014     11.26371152      5.23898081
  H      7.93097308      9.81385877      5.81166578
  O     -1.74169522     -2.83644547      6.48221811
  H     -0.94576977     -3.37270342      6.45919407
  H     -1.93668625     -2.51426936      5.59916599
  O      0.97402717     10.92970407     17.44363079
  H      0.08122865     10.86995918     17.79139702
  H      0.96186225     11.40452424     16.60936595
  O      7.43573149     -4.15153855     12.85031599
  H      7.84772355     -4.74660462     13.48099730
  H      7.83160587     -3.28024487     12.92601797
  O     -3.15348035     -2.33821262     11.72296934
  H     -3.79638580     -1.90962002     12.29268943
  H     -2.48658947     -2.77096114     12.26110062
  O      2.25953429      7.03727382      3.19784898
  H      2.12990447      7.71105090      3.86928071
  H      2.52572952      6.21516854      3.61603915
  O     -4.26811946      6.97545368     12.62727833
  H     -3.39680034      7.26345018     12.90916664
  H     -4.25056083      6.77234278     11.68917511
  O      8.80564267      5.13821648      1.98207271
  H      8.67318850      4.76317060      2.85579834
  H      8.08924772      5.74509240      1.78187305
  O      2.56249113     12.12960787      9.76105754
  H      1.64594851     11.91051965      9.94422407
  H      2.61077229     12.66920816      8.96852965
  O      4.46275577      6.68266107     15.69117972
  H      5.11885921      7.00440915     15.06859924
  H      3.88914999      6.04937774     15.25353987
  O      2.49919358     11.45451429     19.95816144
  H      1.74047374     11.93213845     20.30140970
  H      2.38783364     11.31096228     19.01550997
  O      4.49641070      7.81384744     -1.24770671
  H      3.83899230      7.28326286     -0.79176697
  H      5.00195618      8.31843769     -0.60629230
  O     -0.21148104      0.50034368     12.29621818
  H     -1.14428944      0.67297996     12.44340929
  H      0.31366206      1.09464452     12.83717219
  O     -2.67310408      9.15942660     -0.62018271
  H     -3.09710066      8.59272756     -1.26878051
  H     -2.43566493      9.99422176     -1.03047490
  O      7.13567559     -0.47736043      6.06783483
  H      7.76910809     -0.67760456      6.76084677
  H      7.38922557      0.33715692      5.62752370
  O     11.66505518      7.27976119     18.99626971
  H     12.04654541      6.41315369     19.15456264
  H     11.36774305      7.33747345     18.08529507
  O      8.67154479      1.60759602     22.05294174
  H      9.23279647      2.13477141     21.47963322
  H      8.08194954      1.07057661     21.51853777
  O      4.74952171     12.33963203      0.34460763
  H      4.95386134     11.67638542     -0.31867907
  H      3.83080964     12.25504826      0.60996348
  O     -0.80798697     -0.47902032     15.33098807
  H     -1.49787357     -0.38999939     15.99260106
  H      0.04992734     -0.48731650     15.76170169
  O     -2.67611175      5.42704934      4.56919909
  H     -2.32609451      4.81375517      5.21955145
  H     -3.20021652      6.09872953      5.01164673
  O      6.08899363     -4.93620519     18.31788013
  H      5.46051200     -4.56847575     18.94348855
  H      6.95111023     -5.00752152     18.73413601
  O      1.72197880     10.07307215     12.77869147
  H      1.61744235     10.70818747     13.49094190
  H      1.96522490      9.21920937     13.14386224
  O      8.94195358      6.85727793     18.88149408
  H      9.63260302      6.28805807     19.22875781
  H      9.30921176      7.43030067     18.20446649
  O     11.34230448      1.54570511     12.82563967
  H     11.94205487      1.05335620     12.26040342
  H     10.72374752      2.04011506     12.28291866
  O      3.72566592      3.45797675     10.61655172
  H      4.42039882      3.51559170     11.27657196
  H      4.02466293      2.91556026      9.88307702
  O      1.08585098      9.79817826      8.97658754
  H      1.87231888      9.83985971      8.42765139
  H      0.30728904      9.74472162      8.41749569
  O      6.89239422     -3.99857781     10.19786080
  H      7.50394453     -4.33906370     10.85488103
  H      6.15002277     -4.60067236     10.10860390
  O      5.14812732      0.64011879      7.28225707
  H      4.69866016      0.08417190      6.64155252
  H      5.92368988      1.03424928      6.87634590
  O      7.19000047      2.94801566     17.44883866
  H      7.54145376      2.37769955     16.76121949
  H      6.26231382      2.74542834     17.59010388
  O      1.62473588      2.95617453      2.31178822
  H      2.41054618      2.49065946      2.60741957
  H      1.63085498      3.01901504      1.35386670
  O      6.08382437     -2.38385374      7.08685149
  H      6.05359403     -1.65531788      7.71128855
  H      5.28073840     -2.90435174      7.16257972
  O     -0.72521090      0.22067238     17.78320734
  H      0.15086111      0.50279724     17.51025424
  H     -0.70939651     -0.71602065     17.99286438
  O      1.18879513     -2.60888440      9.48168758
  H      1.85247924     -2.03435336      9.09305217
  H      0.53931338     -2.84485580      8.81528608
  O      3.31601578      5.23475691      1.27107863
  H      2.85301070      6.02633544      1.55503238
  H      4.10239259      5.48249044      0.77930671
  O      3.67270242     -4.26368019     10.54988074
  H      4.09694345     -3.41324557     10.41430599
  H      3.98798460     -4.88759264      9.89190628
  O      4.90268661      5.60113506     -3.53005400
  H      4.45371785      4.81810205     -3.85698880
  H      4.60101569      5.79519007     -2.63958372
  O     13.19425136      1.18489032      3.96537977
  H     13.20287396      0.73413754      3.11782589
  H     13.10560244      0.53961837      4.67062121
  O      3.39760676      8.11115535     18.06235254
  H      3.93772239      8.83749599     18.38220311
  H      3.50565608      7.35258262     18.64070602
  O      8.06363155      5.18466795     11.20299168
  H      7.46528080      5.84832116     11.55390591
  H      8.49308378      5.52509064     10.41477649
  O     -3.30582942      7.43640588     15.71680284
  H     -2.87101701      7.25171361     16.55252225
  H     -4.22941563      7.18054119     15.77267581
  O     -2.70469757      4.42600470      9.27258973
  H     -2.79837249      5.27278957      9.71506051
  H     -3.55193107      3.97470039      9.26164379
  O     -1.78884800      9.61223209      5.48478630
  H     -1.71476521     10.31673076      6.13270092
  H     -2.68927494      9.27946987      5.47475457
  O     10.75729888     10.53417114      2.68378614
  H     10.48575585     10.80200310      3.56476879
  H     10.11107652     10.83912727      2.04269455
  O      7.30171914     -4.36613060      4.77543818
  H      7.39577011     -5.20795388      5.22719917
  H      7.04982080     -3.68936861      5.40800473
  O      3.89863436      2.14111763     19.90742552
  H      4.64381912      2.45683398     19.39107014
  H      3.23148274      1.77960675     19.31936208
  O     11.33496368      1.02614501     -0.79464876
  H     10.46867045      0.85629391     -1.17185778
  H     11.97994388      0.43923351     -1.19606555
  O     -4.97163074      4.49117673      4.24173197
  H     -5.82495540      4.71151071      3.86108782
  H     -5.08795302      4.22535441      5.15683176
  O     10.41131702      7.85744568     15.41431801
  H      9.95889894      7.20383818     15.95256993
  H      9.77764785      8.50446336     15.09583486
  O      6.00309913     -0.60271477     19.73328221
  H      6.71437099     -0.52548376     19.09318245
  H      6.18793402     -1.33045583     20.33147032
  O     -1.27913470      3.61194494      1.18423140
  H     -1.68896657      3.45205292      2.03750297
  H     -0.36587444      3.31692848      1.20705648
  O      2.07126318      8.19393511     15.11890269
  H      2.03195317      9.02166152     15.60359199
  H      1.18237115      7.91734401     14.88444943
  O     11.75768099      0.66114960     15.61668201
  H     11.66722285      0.28124045     14.73970631
  H     10.98852876      0.43502844     16.14476730
  O      7.95714053      6.40329859      5.82914349
  H      8.55497050      6.54062283      5.09067116
  H      7.17529139      5.93602068      5.52588901
  O      7.80748338      1.52343979      3.09493018
  H      7.48630947      2.41812717      3.22902642
  H      8.66924856      1.42720470      3.50687627
  O      8.53727011      2.81933204     10.10692127
  H      8.91582502      2.13077408     10.65845016
  H      9.18168120      3.51971279      9.98121865
  O     -0.95756123      3.15703929      7.44797076
  H     -0.42908505      2.36808545      7.58891319
  H     -1.85832839      2.99539932      7.73795533
  O      7.98707031     10.21250039      2.17335783
  H      8.31618312      9.94915425      3.03587366
  H      7.10680827      9.85243183      2.04263149
  O      6.06219813      2.07487247     -2.21341389
  H      5.27150477      1.94299086     -2.74162904
  H      6.64735311      2.69062719     -2.66067196
  O      3.52219465      5.96725119     22.95730640
  H      3.41837317      6.82035262     22.52947577
  H      3.80571967      5.31684168     22.31063722
  O      5.46532014      1.57107770      4.14866245
  H      5.89174188      1.72638075      4.99462076
  H      5.84080978      0.78801519      3.73949177
  O     -0.66592798      8.77462153     16.71854706
  H      0.04717951      9.09998325     16.16427505
  H     -0.40807742      8.83582371     17.64124277
  O     -4.07494229      2.07792793      6.04082068
  H     -3.60313193      2.30523986      6.84538532
  H     -4.36798782      1.16497887      6.08823730
  O      3.21897322     11.26623278      6.30250881
  H      4.05813891     10.86844691      6.54575222
  H      3.00431680     11.96635919      6.92327095
  O      4.49694437      4.39706703     13.52006155
  H      5.27142627      4.11885312     13.02571874
  H      3.70386110      4.15138315     13.03812965
  O      3.37838775      1.58384354     16.92869895
  H      4.24376363      1.98044266     17.05293145
  H      3.40190402      0.66749779     17.21393122
  O      4.05736072     12.35670496     17.26699146
  H      3.11022255     12.22068715     17.18934842
  H      4.44171457     11.64606669     17.78551376
  O      0.63703164     10.90440208      5.67409087
  H      0.82779831     10.18784841      5.06437051
  H      0.99815962     11.72398462      5.32844504
  O      9.05892495      2.55016749      5.12742207
  H      8.93930109      3.39173060      4.68125879
  H      8.28192966      2.35449787      5.65618640
  O     10.76238766      5.55579035     13.77422845
  H     11.42927979      5.06663512     14.26165234
  H     10.12314670      5.92483864     14.38804793
  O     10.45853577      6.90127271      2.05676925
  H     11.16368285      6.72435960      1.42981682
  H      9.69178669      7.24065070      1.58930970
  O      9.35616131     10.82633089     10.84106045
  H      9.02004329     11.60132378     11.29714234
  H      9.61048829     10.16094278     11.48462588
  O      1.34089884     11.48821883      0.34796210
  H      0.82513041     11.75497324      1.11243906
  H      1.91040427     10.75305976      0.58629950
  O      5.33105853     -0.02277761     16.15900443
  H      4.95820252     -0.82372162     16.53459342
  H      6.14662481      0.19585304     16.61578914
  O      7.37528263     10.13960292     -0.18332784
  H      6.88974487      9.35758575      0.08925654
  H      7.06929483     10.89815103      0.31924179
  O      2.72386530      0.91119654      6.86683112
  H      2.47174024      0.02782850      6.58809493
  H      2.07305704      1.24982641      7.48600672
  O     -0.28946008     -0.81907139      2.12551828
  H     -0.70818028     -0.65503048      1.27736501
  H      0.44317240     -1.42833667      2.00870441
  O     10.14099790      1.58726646      8.58884296
  H      9.54830459      1.02789272      9.09620444
  H     10.59262815      2.19447564      9.17954351
  O      0.52661021     -1.76399125     21.57313163
  H      0.06391962     -2.03272533     20.77607491
  H     -0.01217317     -1.13624375     22.06021021
  O      5.71457274     13.26551275      5.98639420
  H      4.89965965     13.29650776      5.47988067
  H      6.46273408     13.21502594      5.38697306
  O     11.19901478      3.75668991      1.95978765
  H     11.70159525      4.38543442      2.48294462
  H     10.28861432      3.74198448      2.26401577
  O      7.25906801     10.66946663     13.09863260
  H      8.02538711     10.17349005     12.80137467
  H      6.94129750     11.22677719     12.38447096
  O     -1.62617544      8.45807644      9.92723743
  H     -1.75851503      9.37623450     10.17436494
  H     -2.47487254      8.05212347      9.73614732
  O      0.25591817      3.99796215      3.79921721
  H      0.81830757      4.72335926      3.51793943
  H     -0.66491081      4.24059611      3.67755066
  O      0.50393771      1.21003148     23.02487324
  H      0.41186078      1.13096214     22.07257608
  H      1.08910695      0.52124761     23.34853008
  O      1.06701940     12.71760079     12.51165707
  H      0.20458546     12.38155590     12.25693852
  H      1.50392366     13.09365676     11.74400052
  O     -3.39903714      0.39332809     11.56279115
  H     -2.61327288      0.25280275     11.02947402
  H     -3.98698938      1.00413168     11.11242337
  O      4.36399272     -0.42784513     12.65624291
  H      5.09201382      0.19420679     12.72433616
  H      4.25804752     -0.69823949     11.74122241
  O      4.10150422      7.89953155      1.89998621
  H      3.53966044      7.97385346      1.12512633
  H      5.02281862      7.92593172      1.63150378
  O      4.41900709      2.86972704      3.03506487
  H      4.14443215      3.78905314      3.06743965
  H      5.21411463      2.79131158      2.50284779
  O      2.79430016     -1.39382125     15.16087312
  H      1.91200869     -1.72525698     14.97835701
  H      2.73901671     -0.65392746     15.77005365
  O      8.33493594     -0.95473652     -1.25461005
  H      8.68372563     -1.34332338     -0.44903820
  H      7.93267486     -0.10665915     -1.05323775
  O      8.44586369      3.55709221     12.32042670
  H      7.79588076      4.04218310     12.83405013
  H      9.15261639      3.25879048     12.89758933
  O      5.54887526      0.41694070     22.18507078
  H      5.31644007      0.61220862     23.09580912
  H      4.92043233      0.84081570     21.59601265
  O      6.89390921      6.31781423      0.18269527
  H      7.18206322      7.22940241      0.26972554
  H      7.11510538      5.99408036     -0.69358587
  O      3.13417680      9.54448263     10.96809319
  H      3.01914887      9.02130851     10.17143930
  H      3.69685272      9.07013085     11.58452339
  O      5.16557161     -1.95114689     14.41987936
  H      4.79536594     -2.39927138     13.65585566
  H      4.71541849     -1.11314022     14.54913492
  O      3.70581128     -3.36117139     16.35019184
  H      3.49696976     -3.25592549     15.41911261
  H      4.56998004     -2.98344905     16.52946314
  O     -1.99297062     -3.32052818      1.64724470
  H     -1.87184463     -4.24203016      1.88758321
  H     -1.27380126     -3.04114744      1.07598133
  O      8.13883680      2.48643640      7.85804194
  H      8.36715725      1.60299466      7.55971248
  H      7.40400434      2.43681248      8.47380060
  O      3.45437721      2.56505746     -5.18350635
  H      3.29916878      2.81778005     -4.27046657
  H      3.31910228      1.61973042     -5.28177886
  O     -3.21552756      2.95661927     16.53112867
  H     -3.53357935      3.27935200     15.68479147
  H     -2.93112105      2.04427140     16.43983629
  O      0.67754290      6.37603574     -1.08769590
  H      0.77621815      6.19522373     -0.15005513
  H      0.92989874      5.59921917     -1.59214862
  O      4.72004781      2.88075830      7.99426599
  H      4.39591140      3.78107340      7.91701113
  H      4.05561204      2.27152174      7.66418126
  O     -2.56480192      3.02902332     22.69718763
  H     -3.08421562      3.13643717     21.89701785
  H     -1.66619786      2.78332762     22.46535933
  O      3.71574456      6.68574825      5.23520705
  H      3.44573154      7.18910352      6.00678106
  H      4.65759341      6.80198890      5.09026272
  O      6.13579952      4.22515055     10.36376519
  H      6.67857977      3.66665755     10.92508076
  H      5.77586880      4.94798919     10.88295126
  O     11.08814523      0.28154525     20.94517595
  H     11.17407536     -0.38877343     21.62700356
  H     10.41360808      0.01450142     20.31645723
  O      7.90981911      8.36996092     11.46903427
  H      7.83498497      9.21939919     11.02806434
  H      7.88197819      7.66651698     10.81635401
  O      0.88773033      8.83679728     21.68748471
  H      0.61191730      9.50139805     22.32296326
  H      0.19824570      8.71594816     21.03051710
  O      4.84113962      3.51559404     23.06269229
  H      5.64090955      3.43531665     22.53778886
  H      4.95227058      3.04229622     23.89048399
  O      4.28631970     10.24794296      1.25711782
  H      5.23033800     10.18400334      1.09481821
  H      4.13528560     10.53993889      2.15907518
  O      0.61666079      4.39769368     -4.17344824
  H      1.18847805      5.16812483     -4.14087717
  H      0.94838194      3.77990382     -4.82911336
  O      9.01493891      1.28622288     13.83506576
  H      9.36594366      0.58622817     14.39040626
  H      8.67898204      1.99567813     14.38770148
  O     12.33320840      4.71830689     10.41513822
  H     13.01978003      5.01899479      9.81529975
  H     11.66399769      4.23858652      9.92155398
  O     -1.10922707      5.82696637      2.35723064
  H     -1.87967444      5.59493318      1.83361681
  H     -0.34192700      5.89726192      1.78459713
  O     10.34000749      5.89903943      6.88188084
  H      9.68987901      6.60469978      6.85063289
  H     10.21594013      5.31547565      6.12977672
  O      1.77804055      3.64293768     21.22853966
  H      1.08289520      3.37623660     21.83454583
  H      1.75037452      3.08864565     20.44521664
  O      4.86699962     11.11110191     10.92017910
  H      4.68483729     10.92565071     11.84431369
  H      5.78304885     10.90002547     10.72549847
  O      2.43444492      5.25995317      7.65102315
  H      3.19621100      5.81344505      7.46404944
  H      2.56122738      4.39536896      7.25350540
  O      3.35820400      0.58723957      9.98599557
  H      3.92305052      1.05354083     10.60656914
  H      3.65249333      0.76411690      9.08949783
  O     -0.17909088      7.50271919     12.79718227
  H      0.09833715      8.33879232     13.17877815
  H      0.38351511      6.79788761     13.12625208
  O     -1.67101484     -0.37971609      6.44211197
  H     -1.09145947     -0.90701330      6.99679497
  H     -2.24967539      0.14987227      6.99554502
  O      3.60704056      4.20130200     19.40090947
  H      4.49030061      4.56056014     19.28962032
  H      3.32968776      3.77470711     18.58685036
  O      5.50441003      6.04972835      2.20131616
  H      5.66868064      5.11318839      2.06899811
  H      4.75732674      6.16352418      2.79336099
  O      4.20056293     10.44364346     21.03337906
  H      4.35292960     10.59353708     20.09747506
  H      3.33003730     10.05884241     21.15873174
  O      9.31166681      2.09573154     17.82434351
  H      9.98160948      2.45673916     18.40953605
  H      8.61894990      1.68370806     18.34586048
  O      5.63992358      1.15019255      9.38206126
  H      5.93502664      1.96402878      9.79701281
  H      6.36345454      0.76438130      8.88280920
  O      2.17626145     -0.49070925      0.94399321
  H      3.02909643     -0.79054464      0.62092782
  H      2.04075115      0.42478819      0.68884344
  O     -1.99320543      4.55071673     11.39944022
  H     -2.56420475      4.06835021     12.00183738
  H     -1.56226353      5.26729842     11.87103301
  O      3.84348529     -1.70242716      8.65242393
  H      4.50336891     -1.15135736      9.07959565
  H      3.34342468     -1.17542682      8.02488107
  O      2.08734400     -0.70760358     10.90473464
  H      2.63352959     -1.49685549     10.88568910
  H      1.17568069     -0.95291902     11.07877586
  O     -2.19555283      1.00331586      2.46530334
  H     -2.89697009      0.65208923      3.01870526
  H     -1.47342451      1.30934926      3.01890451
  O     -3.73071467     -1.63634698      7.30922822
  H     -4.54009706     -1.60393604      7.82444631
  H     -2.97516415     -1.66415388      7.90081099
  O      0.53939631      4.98099862     11.02859204
  H      0.32861803      5.87978982     11.29193003
  H      0.76957234      4.46525376     11.80488208
  O      8.06166715     -3.92744685      7.69438610
  H      7.11586779     -4.09178613      7.68689108
  H      8.24149033     -3.07227445      7.29696466
  O      3.12811122      2.31680225     12.28864414
  H      3.66485013      1.59841077     12.63131748
  H      2.22789191      2.22542068     12.60935367
  O      7.57767029      4.68730890     19.85134161
  H      7.36826909      4.87692148     18.93384599
  H      8.42076164      4.23075433     19.89986888
  O      4.02921492      5.79748626     11.93187702
  H      4.28367280      6.67652615     11.64180797
  H      3.11382068      5.63381074     11.69341589
  O      2.65640716      0.07821867     -1.43175558
  H      2.67800451     -0.73119823     -1.94748598
  H      2.62993785      0.83420379     -2.02284430
  O     -0.88661899     11.16701642      3.07983300
  H     -1.49155527     11.00831525      3.80816400
  H     -0.00941114     11.34777341      3.42542424
  O     -5.94997724      5.17381635      7.96111841
  H     -6.05665858      6.08061827      7.66458953
  H     -5.75735647      4.61086391      7.20773817
  O      4.56089575      9.64689266     13.57847665
  H      5.36561720     10.17025295     13.58931207
  H      4.66451996      8.88777368     14.15692318
  O      8.46848300      5.88544833     21.46633910
  H      9.18084004      6.16614408     22.04543957
  H      8.15638916      6.63581178     20.95530864
  O     10.51219032      5.14082894     -0.52284472
  H      9.88236818      5.31985714      0.17920441
  H     11.27122815      4.67701661     -0.16181881
  O      4.45116656      3.84715531      5.91388426
  H      4.30482847      2.92968993      5.67213554
  H      3.78245356      4.39806446      5.50045707
  O      5.78432662      6.14441884     20.59000348
  H      5.47348180      6.30421586     19.69588916
  H      5.58509470      5.23966068     20.84163679
  O     -0.18045229      6.33186473     15.44906983
  H     -0.73417914      6.41022166     16.22935617
  H      0.19183658      5.44795586     15.40776491
  O      4.94283211      1.91292868     -0.46041695
  H      5.44732327      1.98940431      0.35274979
  H      4.01672068      2.09096666     -0.28091738
  O     -5.23491051      3.11563921     10.52539906
  H     -4.51322253      3.52287851     11.01008721
  H     -5.79368409      2.62643778     11.13371975
  O      0.03944115      5.37644787     21.77094599
  H      0.82015738      5.90586332     21.94927562
  H     -0.48685544      5.80101451     21.08950996
  O     -2.96955402      8.22961393      7.79850241
  H     -2.06970845      8.37685777      7.49817390
  H     -3.55026806      8.14060789      7.03925994
  O     -3.90133828      2.42826011     12.57770802
  H     -2.99425450      2.11593432     12.61308620
  H     -4.19321489      2.66559751     13.46092884
  O      2.45174330      0.76282677     21.11512781
  H      2.55059200      1.51756871     21.70010093
  H      2.44914254     -0.04564859     21.63277714
  O      4.19318912      5.08038420     17.16399352
  H      4.85718259      4.40436693     17.31798489
  H      4.43673260      5.88159581     17.63340435
  O     10.10392905     -0.48016578     10.72162831
  H     10.64123448      0.28901937     10.92474672
  H      9.25542964     -0.40428327     11.16422360
  O      3.13407649     -4.06127513      7.68561159
  H      2.79248756     -4.25832879      6.81034771
  H      2.47841923     -4.29697034      8.34603671
  O      2.65735044     10.69772213      4.11718157
  H      3.44976799     11.23435568      4.19267239
  H      2.86093332      9.89126451      3.63782771
  O      6.20043482      6.86284641     12.87142124
  H      5.61709091      6.20881671     13.26328224
  H      5.81841246      7.73720998     12.97700186
  O      0.19127300     -3.75076170     14.02206980
  H     -0.58071202     -3.18311888     14.08055712
  H      0.74994593     -3.61208983     14.79035014
  O      8.25179164      7.03632270     -2.70233592
  H      8.73221704      6.30828177     -2.30140220
  H      7.95155723      7.63805004     -2.01722023
  O      0.62881419      3.75272030      6.28505031
  H      1.14877118      4.40485922      5.80969827
  H      1.20277996      3.04702583      6.59190305
  O      4.45305646      8.87502189      8.00838487
  H      3.90014474      9.55288631      8.40384467
  H      4.21009962      8.76072206      7.08669754
  O      1.87721593     -3.82394430      0.87078328
  H      1.59576812     -3.13166323      0.26817723
  H      1.85866266     -3.49194946      1.77135821
  O      9.15163568     10.10974266     16.28764349
  H      9.46398726      9.42215677     16.88031721
  H      8.58337604     10.71475866     16.76996769
  O     -2.84027696      5.68694494      7.71134706
  H     -2.17243336      5.21905276      7.20472902
  H     -3.43976933      6.13761165      7.11209050
  O     -2.24048010      1.61693166      9.54032918
  H     -2.97542898      1.47929338      8.93824459
  H     -1.41407071      1.45426842      9.07969027
  O      0.15274003      9.46303652     10.89702931
  H      0.46661882     10.36428315     10.79293981
  H      0.85423405      8.91970558     11.26349573
  O      2.37223949      8.05478792     20.45452532
  H      2.29215558      8.86010841     19.93814806
  H      3.30074127      7.84695443     20.58215637
  O      7.04172272      5.11755383     23.40799205
  H      6.45224970      5.86368568     23.53993452
  H      7.91154823      5.33136571     23.75337309
  O     10.91051243      3.14062718      7.32440806
  H     10.79236599      3.27436490      6.38113947
  H     11.74832854      2.69962067      7.48308205
  O      3.95715758      9.70035097     15.84213794
  H      3.66931316     10.44429333     16.37626841
  H      4.28936104      9.00464907     16.41418665
  O      6.83609854      1.78737213     12.63232415
  H      6.13817117      1.83334740     11.97476529
  H      7.68594080      1.70929884     12.19269624
  O      4.36029296      8.87363468      4.79154271
  H      4.96326048      9.41610803      5.30511144
  H      4.80342769      8.56563763      3.99758463
  O      7.57604096      7.49573261      8.36039528
  H      8.26159179      7.71462935      7.72501801
  H      7.88089905      6.78440887      8.92844464
  O      2.77967592      7.07120566     13.23700960
  H      3.65647304      7.22253184     13.59746375
  H      2.28929831      6.48817867     13.82114085
  O     -0.12371350      3.91725149      9.35812270
  H     -0.42960950      4.68669175      8.87233538
  H     -0.84117288      3.57000191      9.89316454
  O      6.91731342     11.40930619     15.73546547
  H      6.17411424     11.78938848     15.26134267
  H      7.41630962     10.83965372     15.14546644
  O      0.99677045     -2.83849934     11.76649326
  H      0.64584293     -2.43551440     12.56402258
  H      0.28075917     -3.23933381     11.26823672
  O      4.84580719      4.27459771     -0.77477235
  H      5.58420281      4.51388675     -1.33967293
  H      4.09366944      4.02777143     -1.31787970
  O      1.82904930      5.75322746     19.22252050
  H      2.61100501      5.91363573     19.75582571
  H      1.08391614      5.56031060     19.79624487