110
Energy = -11983.08909493 au
 Ni      0.00867955     -3.83297000     -2.35787000
 Ni     -1.45149000     -0.28639200     -1.23283000
 Ni      0.47348600     -4.25097000      0.26719500
 Ni     -0.62354100      4.25205000     -0.06685940
 Ni     -1.28326000      2.33881000     -2.05859000
 Ni     -3.07615000      0.43204900      0.68599300
 Ni     -0.98257000     -0.90234800      1.41254000
 Ni     -0.28984800      3.64178000      2.45487000
 Ni      0.34287500     -1.06550000     -3.36848000
 Ni      3.11861000     -0.52661900     -0.72694400
 Ni      0.70141900     -1.69032000     -0.57456100
 Ni      2.51115000     -2.43140000     -2.37408000
 Ni      3.30274000      2.04767000     -1.63186000
 Ni      1.84769000     -0.24719200      3.96841000
 Ni      1.36337000      0.24207200      1.26023000
 Ni      2.89754000     -0.00752673     -3.48374000
 Ni      1.30994000      3.42169000     -2.20740000
 Ni     -2.35263000     -2.18215000     -3.03441000
 Ni      3.51757000     -1.18276000      1.97040000
 Ni     -1.72221000     -2.89673000     -0.41372900
 Ni      3.64535000      1.44079000      1.09101000
 Ni      0.96679200      0.84508800     -1.32019000
 Ni     -2.17703000      0.50597500     -3.67123000
 Ni     -4.03810000     -1.54957000     -1.27957000
 Ni      2.12562000      2.32073000      3.20952000
 Ni     -0.30646700      1.00189000      3.36541000
 Ni      3.01688000     -2.96119000      0.03008660
 Ni     -1.27236000     -3.45351000      2.31596000
 Ni     -3.07009000      2.84838000     -0.08100790
 Ni      1.66788000      2.88792000      0.52019900
 Ni     -2.41070000      2.30379000      2.72112000
 Ni     -2.81274000     -0.19120100      3.41777000
 Ni      0.59582900      1.36714000     -3.79965000
 Ni     -0.73963500      1.65315000      0.61878700
 Ni     -3.42947000     -2.13652000      1.75040000
 Ni     -0.65773600     -1.59331000      4.27106000
 Ni     -3.94421000      0.98364400     -1.79103000
 Ni      1.19063000     -2.42682000      2.06366000
  C      3.18416000      4.08413000      1.63487000
  O      3.74938000      5.34704000      1.64280000
  C      1.29644000     -4.65609000      2.62950000
  O      1.86303000     -5.40654000      3.40586000
  C     -1.38981000     -3.02624000      5.34530000
  O     -1.42090000     -4.00927000      6.21476000
  C      0.29850300     -6.17656000     -2.03382000
  O     -0.69862600     -7.07321000     -2.34171000
  C     -5.34687000      2.22910000     -0.24388300
  O     -6.23937000      3.02156000      0.21136300
  C      1.50182000     -5.45681000     -2.28235000
  O      2.29203000     -6.29251000     -2.82619000
  C     -4.36403000      0.09534560     -4.19102000
  O     -5.00132000      0.73685300     -5.06931000
  C     -3.06260000     -3.72559000      3.44421000
  O     -3.60891000     -4.29990000      4.48534000
  C     -5.28215000     -3.35789000     -0.67480400
  O     -6.23078000     -4.04566000     -0.19187500
  C     -4.09662000     -1.55569000     -4.24575000
  O     -4.42278000     -2.31066000     -5.21879000
  C     -1.12319000      3.76035000      4.31994000
  O     -1.00257000      4.40851000      5.46171000
  C     -2.36736000     -5.10170000     -2.39583000
  O     -3.19235000     -6.07047000     -2.32902000
  C      5.16819000     -1.69023000     -2.58180000
  O      6.33868000     -2.08898000     -2.96405000
  C     -2.26674000      2.68561000      4.77127000
  O     -3.34684000      2.97758000      5.56784000
  C      0.22016500      1.24539000      5.58759000
  O      0.77303900      2.00484000      6.47387000
  C     -5.21292000     -0.98097300     -3.11199000
  O     -6.50618000     -1.17604000     -3.09177000
  C      1.86432000     -0.42079900     -5.37840000
  O      2.42255000     -0.29512200     -6.54262000
  C      1.68409000      3.62802000      5.00436000
  O      1.26430000      4.00981000      6.15028000
  C      0.62924400     -1.26052000     -5.31579000
  O      0.10518700     -1.90604000     -6.28952000
  C      4.75659000     -0.43627600     -3.34020000
  O      5.67441000      0.12683400     -4.05899000
  C      0.42949900     -0.43886900      5.68358000
  O      0.22672700     -0.45609800      6.94933000
  C     -2.32971000      3.01132000     -3.93389000
  O     -2.70515000      4.04836000     -4.55262000
  C     -5.43648000     -2.30102000      2.91818000
  O     -5.90958000     -3.09469000      3.81739000
  C      4.79194000     -2.68753000     -1.13640000
  O      5.91229000     -3.34755000     -0.98065000
  C      3.25724000      3.76489000     -3.33047000
  O      3.80017000      4.43413000     -4.25451000
  C      4.08434000     -3.23550000      2.95296000
  O      4.80741000     -3.68985000      3.91622000
  C     -1.61222000     -4.95899000     -3.68614000
  O     -1.82617000     -5.82796000     -4.60966000
  C     -1.35974000      5.68870000      1.51055000
  O     -1.87321000      6.84673000      1.65757000
  C     -2.77442000     -1.84995000      5.59198000
  O     -3.09155000     -2.37308000      6.73199000
  C     -4.58869000     -3.61048000     -1.90552000
  O     -4.79919000     -4.57588000     -2.73539000
  C      3.75643000      0.81864300      4.55648000
  O      4.58909000      0.80511700      5.49503000
  C     -5.76362000      0.93091200     -0.81518400
  O     -6.89982000      0.35296500     -0.77972200
  C      2.60389000      4.26770000      4.11071000
  O      3.22002000      5.37323000      4.16901000
  C     -3.85606000     -1.06707000      4.84305000
  O     -5.09172000     -1.04452000      5.31248000
  C     -1.30019000      1.57966000      5.42024000
  O     -1.67294000      1.05563000      6.61198000
  C     -2.03868000     -5.04431000     -0.56084000
  O     -2.76357000     -6.03165000      0.01485740
