110
Energy = -12344.04861347 au
 Ni     -0.02325950     -3.42593000     -2.39029000
 Ni     -1.43006000     -0.30784600     -1.31142000
 Ni      0.42148200     -4.69708000      0.37676000
 Ni     -0.43364700      4.49057000     -0.30572300
 Ni     -1.29558000      2.55571000     -2.24192000
 Ni     -3.15148000      0.42578600      0.64390200
 Ni     -1.03164000     -0.95895900      1.31064000
 Ni     -0.07474320      3.47111000      2.17641000
 Ni      0.23740600     -1.01991000     -3.37455000
 Ni      3.05441000     -0.47167200     -0.63198900
 Ni      0.66389100     -1.73188000     -0.48739800
 Ni      2.37535000     -2.23402000     -2.38430000
 Ni      3.36722000      1.99097000     -1.75960000
 Ni      2.11604000     -0.15901200      4.18886000
 Ni      1.36730000      0.26184900      1.25711000
 Ni      2.67302000      0.32064300     -3.65803000
 Ni      1.01737000      3.44493000     -2.14702000
 Ni     -2.41362000     -2.37814000     -3.08384000
 Ni      3.49780000     -1.08225000      2.07268000
 Ni     -1.82485000     -2.98923000     -0.38901100
 Ni      3.96908000      1.30734000      0.91040100
 Ni      0.94400300      0.89351700     -1.42533000
 Ni     -2.01596000      0.22409700     -3.93119000
 Ni     -3.93386000     -1.56023000     -0.90061800
 Ni      2.23535000      2.10349000      3.00372000
 Ni     -0.27419600      0.90175900      3.26647000
 Ni      2.70910000     -3.52753000      0.23689300
 Ni     -1.16436000     -3.54511000      2.11512000
 Ni     -2.83327000      3.52479000     -0.01918110
 Ni      1.74447000      3.04205000      0.41455000
 Ni     -2.46355000      2.57716000      2.35611000
 Ni     -2.92465000     -0.10983400      3.14420000
 Ni      0.30759400      1.59217000     -4.15947000
 Ni     -0.75979900      1.68320000      0.44501500
 Ni     -3.74922000     -2.25166000      1.60848000
 Ni     -0.48998600     -1.60955000      3.81812000
 Ni     -3.46355000      1.26512000     -1.90942000
 Ni      1.27409000     -2.47654000      2.08764000
  C      2.38244000     -0.66092000     -5.22664000
  O      3.22228000     -1.20019000     -6.04338000
  C     -0.02348170      6.69277000     -1.06332000
  O      0.88764600      7.55688000     -0.81229600
  C     -3.67048000     -0.64539800     -4.75810000
  O     -4.55540000     -0.08610100     -5.51630000
  C     -0.07916730      0.59285500      5.45209000
  O     -0.83767300      0.99310200      6.41917000
  C      3.28715000      1.70444000      4.79629000
  O      4.32474000      2.04330000      5.52580000
  C     -3.51558000     -3.88977000     -2.18696000
  O     -3.95414000     -4.85343000     -2.91955000
  C     -0.58054600     -4.10373000      4.52500000
  O     -0.75998000     -4.32404000      5.76900000
  C     -4.76645000     -4.08973000      2.25608000
  O     -5.35717000     -5.21736000      2.09168000
  C      0.34902400     -5.59449000      2.37675000
  O      0.57726800     -6.85079000      2.46767000
  C      2.62523000     -4.03413000      2.72849000
  O      3.09970000     -4.29480000      3.89813000
  C      0.30555000     -5.07193000      3.83053000
  O      1.20876000     -5.70481000      4.52923000
  C      2.48901000      5.07943000      0.30892400
  O      3.02407000      6.01920000     -0.37885100
  C     -0.35831700     -3.10220000     -4.49388000
  O     -0.08338100     -3.66648000     -5.66422000
  C      1.89813000     -5.62571000     -0.67321200
  O      2.29780000     -6.85755000     -0.89633100
  C      3.63586000      1.67354000     -4.68572000
  O      3.77646000      1.75792000     -5.96654000
  C     -3.29209000      2.88817000     -3.24335000
  O     -3.89757000      3.64658000     -4.12834000
  C      1.21753000     -0.10451400     -6.03691000
  O      1.35059000      0.29309000     -7.24888000
  C     -0.75800100      2.95868000     -5.04834000
  O     -0.67035600      3.83372000     -5.98639000
  C      4.03384000     -0.79161700      4.29491000
  O      5.08351000     -0.59261500      5.07721000
  C     -2.80061000      4.55083000      2.22606000
  O     -3.44285000      5.54137000      2.81066000
  C      4.14250000      2.54344000     -3.63230000
  O      4.96995000      3.49432000     -3.91583000
  C     -3.80292000     -3.89222000     -0.65627100
  O     -4.46710000     -4.85439000     -0.10439900
  C     -3.31910000      5.41876000     -0.11573300
  O     -4.22392000      6.22232000      0.32005700
  C     -0.95430400      4.73752000     -2.84350000
  O     -0.72662400      5.46500000     -3.88401000
  C     -5.43088000     -1.15416000      0.42374900
  O     -6.75926000     -1.02816000      0.48191000
  C     -3.76296000     -2.06582000     -4.42561000
  O     -4.59440000     -2.94360000     -4.88212000
  C     -2.27462000      5.23471000     -2.20387000
  O     -3.43734000      5.54775000     -2.70211000
  C     -0.27770800     -0.25802100     -5.45610000
  O     -0.93976100     -0.61282700     -6.50943000
  C      5.68610000      0.86011200     -0.08899640
  O      6.93509000      0.78890900      0.18287200
  C     -4.94499000     -0.11054200      3.08552000
  O     -5.95375000      0.29239700      3.76780000
  C     -4.51061000     -3.16919000      3.28706000
  O     -4.77349000     -3.06862000      4.54629000
  C     -1.44258000     -5.44730000      0.48026400
  O     -1.97603000     -6.66162000      0.46193600
  C      2.97090000     -4.96548000      1.60947000
  O      3.39524000     -6.17829000      1.59525000
  C      1.32529000      0.28556700      5.83675000
  O      1.96695000      0.40011100      6.94924000
  C      2.31186000      4.92312000      1.72321000
  O      2.73156000      5.65242000      2.68776000
  C     -2.30023000      6.13394000     -0.91502000
  O     -1.92715000      7.32071000     -1.25294000
