110
Energy = -10508.62499488 au
 Ni      0.04739830     -3.49772000     -2.22085000
 Ni     -1.37068000     -0.22769600     -1.15766000
 Ni      0.46748400     -4.19977000      0.23390800
 Ni     -0.51604700      4.21182000     -0.22821100
 Ni     -1.15430000      2.25316000     -1.91337000
 Ni     -3.08482000      0.49923700      0.67171500
 Ni     -0.95044700     -0.86145600      1.28684000
 Ni     -0.09985780      3.49801000      2.27499000
 Ni      0.29301900     -0.95745500     -2.96760000
 Ni      3.07634000     -0.49605800     -0.65455800
 Ni      0.71368800     -1.61131000     -0.53117100
 Ni      2.40987000     -2.32828000     -2.38259000
 Ni      3.32880000      1.97290000     -1.41748000
 Ni      1.85298000     -0.37896800      3.66852000
 Ni      1.37219000      0.22885600      1.16294000
 Ni      2.63947000      0.15450700     -3.12976000
 Ni      1.17889000      3.36051000     -2.04406000
 Ni     -2.04336000     -2.09665000     -2.87544000
 Ni      3.55186000     -1.11235000      1.82638000
 Ni     -1.60819000     -2.73141000     -0.41152600
 Ni      3.77815000      1.32707000      1.08091000
 Ni      0.94808000      0.86202000     -1.28433000
 Ni     -1.81911000      0.41817700     -3.63039000
 Ni     -3.72409000     -1.34173000     -1.04014000
 Ni      2.05944000      2.07441000      2.94262000
 Ni     -0.29152900      0.97209800      2.99461000
 Ni      2.80506000     -2.98327000      0.09140530
 Ni     -1.17091000     -3.37701000      2.04833000
 Ni     -2.80701000      3.00096000     -0.10510700
 Ni      1.59253000      2.69572000      0.41939400
 Ni     -2.43142000      2.32782000      2.41215000
 Ni     -2.69408000     -0.17039100      3.16279000
 Ni      0.52631900      1.51966000     -3.76472000
 Ni     -0.71663900      1.61179000      0.53460100
 Ni     -3.31993000     -1.97835000      1.43278000
 Ni     -0.51330100     -1.54070000      3.75859000
 Ni     -3.53915000      1.15742000     -1.80317000
 Ni      1.14196000     -2.26130000      1.92068000
  C     -2.37058000     -5.31998000      0.12653300
  O     -3.06121000     -6.38560000     -0.01353470
  C      6.07297000      0.82424500      0.44306600
  O      7.35922000      0.71744000      0.37292400
  C     -0.96292200      6.26438000      1.22123000
  O     -1.50394000      7.48986000      1.34874000
  C     -2.01439000      2.93916000      4.83461000
  O     -2.14175000      3.16898000      6.09655000
  C     -5.82821000      1.47286000     -1.13237000
  O     -7.12352000      1.82824000     -1.13045000
  C      5.01993000      0.66543800      3.51183000
  O      6.04782000      0.97122900      4.27118000
  C     -5.64256000      0.65545900      0.42587300
  O     -6.93634000      0.68182700      0.66765600
  C     -1.25898000     -5.69828000     -1.58665000
  O     -1.79183000     -6.84699000     -1.88986000
  C     -3.09131000      3.28244000     -3.63081000
  O     -3.56888000      4.17967000     -4.42603000
  C      5.46872000     -0.19590100     -1.52102000
  O      6.72430000     -0.32474500     -1.95735000
  C      0.47242600      3.35018000      4.90588000
  O      0.18021900      3.79475000      6.14048000
  C     -1.04157000      6.15306000     -1.67672000
  O     -1.35855000      7.15791000     -2.41307000
  C      5.74477000     -0.90128700      2.93101000
  O      6.82504000     -0.96684000      3.72589000
  C     -5.42341000     -0.47677300      2.18662000
  O     -6.73021000     -0.42127800      2.41757000
  C     -0.26749600     -6.54865000      0.00564677
  O     -0.93316200     -7.66768000     -0.11730100
  C     -2.54955000     -4.72065000     -2.48958000
  O     -3.40154000     -5.71343000     -2.80361000
  C     -5.13501000      1.80585000      1.89434000
  O     -6.35174000      2.09183000      2.29103000
  C     -0.44003600      3.34579000     -5.16095000
  O     -0.88850500      4.21473000     -5.99780000
  C      4.18264000     -0.51019500      4.70774000
  O      5.12087000     -0.55116800      5.62943000
  C      2.94074000      4.89146000      0.30209900
  O      3.61700000      5.96877000      0.50757800
  C      1.14212000      1.39110000      5.59828000
  O      0.93812900      1.66639000      6.88839000
  C     -2.07394000      4.63815000      4.24717000
  O     -2.68757000      5.72920000      4.73218000
  C     -4.97606000     -0.12086600      3.99086000
  O     -6.14756000      0.26144400      4.36782000
  C      1.01326000     -6.31917000      1.39773000
  O      1.51829000     -7.22418000      2.20887000
  C      4.53863000      2.62823000      3.66063000
  O      5.49312000      3.01329000      4.49883000
  C      4.88365000     -2.49590000     -2.70684000
  O      6.11473000     -2.72777000     -3.00463000
  C     -2.41071000      5.02690000     -2.01242000
  O     -3.11378000      5.85051000     -2.86851000
  C      0.82355900     -3.98189000      4.12947000
  O      1.19278000     -4.81501000      5.16069000
  C     -1.01508000      5.67496000      2.86472000
  O     -1.39998000      6.79713000      3.41857000
  C     -4.32738000     -4.06504000      0.07971360
  O     -5.02830000     -5.13881000     -0.06030670
  C      5.89199000      1.97129000     -1.07314000
  O      7.15251000      1.90547000     -1.51308000
  C      3.51849000      1.47229000      5.08611000
  O      4.47754000      1.57988000      5.94242000
  C      5.71151000     -0.98725200      0.11512300
  O      6.92129000     -1.42309000     -0.01958570
  C      2.31177000      2.78791000      5.28469000
  O      2.35015000      3.37117000      6.42940000
  C     -4.10399000     -1.53001000      4.57584000
  O     -4.66159000     -2.25177000      5.51857000
  C      1.67269000     -4.76494000      2.79539000
  O      2.32950000     -5.70315000      3.51160000
