110
Energy = -10141.34308794 au
 Ni      0.07942900     -3.46021000     -2.22990000
 Ni     -1.36658000     -0.22793600     -1.15942000
 Ni      0.49027600     -4.16137000      0.22991400
 Ni     -0.47579800      4.17239000     -0.21957200
 Ni     -1.14199000      2.24378000     -1.91122000
 Ni     -3.03172000      0.49466000      0.65056900
 Ni     -0.94628400     -0.86147000      1.28484000
 Ni     -0.07052780      3.47500000      2.23377000
 Ni      0.29419400     -0.95539000     -2.97546000
 Ni      3.02689000     -0.49757500     -0.65448200
 Ni      0.71420100     -1.60847000     -0.53151400
 Ni      2.41327000     -2.32210000     -2.38162000
 Ni      3.28220000      1.98704000     -1.42948000
 Ni      1.81005000     -0.39834500      3.64824000
 Ni      1.36635000      0.22910400      1.15919000
 Ni      2.63202000      0.15280700     -3.13869000
 Ni      1.18187000      3.37640000     -2.05237000
 Ni     -2.03624000     -2.06752000     -2.88970000
 Ni      3.48702000     -1.13888000      1.80454000
 Ni     -1.58630000     -2.68750000     -0.40569100
 Ni      3.71480000      1.34193000      1.06140000
 Ni      0.94577800      0.86198700     -1.28503000
 Ni     -1.81571000      0.41775600     -3.65387000
 Ni     -3.71676000     -1.33413000     -1.05262000
 Ni      2.04531000      2.08970000      2.90071000
 Ni     -0.29355600      0.95780700      2.98331000
 Ni      2.81805000     -2.99867000      0.09929640
 Ni     -1.18062000     -3.37212000      2.06330000
 Ni     -2.81946000      2.99529000     -0.09630170
 Ni      1.59537000      2.70737000      0.41433800
 Ni     -2.40313000      2.32323000      2.38479000
 Ni     -2.63840000     -0.16703700      3.14665000
 Ni      0.51466800      1.52946000     -3.77495000
 Ni     -0.71359300      1.60885000      0.53155700
 Ni     -3.28408000     -1.99381000      1.43282000
 Ni     -0.53261600     -1.51521000      3.76412000
 Ni     -3.50098000      1.14157000     -1.80295000
 Ni      1.13537000     -2.24013000      1.90270000
  C     -1.68744000      3.39079000      4.72495000
  O     -1.81363000      3.78336000      5.95019000
  C     -0.11265700      4.31399000     -4.25433000
  O     -0.56316700      5.24158000     -5.02756000
  C      1.78974000     -6.11575000     -0.68039400
  O      2.30979000     -7.23178000     -1.05583000
  C     -3.45800000     -3.49088000      3.78786000
  O     -4.14325000     -4.20109000      4.63875000
  C     -2.02830000     -1.80458000     -5.57895000
  O     -1.89602000     -2.19054000     -6.80525000
  C     -1.80337000      2.50017000     -5.24387000
  O     -2.32424000      3.43507000     -6.10378000
  C     -0.89461700     -6.20519000     -0.17367400
  O     -1.54906000     -7.29730000     -0.35354300
  C      2.27912000     -5.16358000      1.97797000
  O      2.74666000     -6.20395000      2.77063000
  C      1.66707000      0.86872900      5.80683000
  O      1.63342000      1.17396000      7.13132000
  C     -3.99025000     -2.02681000     -4.47182000
  O     -4.96948000     -2.20922000     -5.28826000
  C     -2.44415000      3.86622000     -3.37189000
  O     -2.88844000      4.77177000     -4.22304000
  C      0.65822100      6.34173000      0.04914760
  O      1.33150000      7.50377000      0.18155800
  C      3.56126000      3.88197000      3.95637000
  O      4.23907000      4.96945000      4.24626000
  C     -5.48931000      2.69471000     -0.36553900
  O     -6.72357000      3.01827000     -0.10519500
  C      5.26279000     -2.43554000     -0.93913300
  O      6.51015000     -2.66005000     -1.19712000
  C      1.98530000      5.67883000     -1.41627000
  O      2.71061000      6.86048000     -1.37758000
  C      4.69855000      2.02633000      3.63392000
  O      5.67630000      2.17810000      4.46098000
  C      4.66073000     -3.04802000     -3.35222000
  O      5.90829000     -3.25570000     -3.59938000
  C      2.69806000      5.02203000      0.28075700
  O      3.42120000      6.16161000      0.45187800
  C     -2.04251000      5.99268000      0.67273700
  O     -2.56328000      7.10927000      1.05222000
  C      3.82220000      3.35489000     -3.61918000
  O      4.50666000      3.96869000     -4.52672000
  C      1.10007000     -4.46820000      3.44272000
  O      1.64452000     -5.40349000      4.34267000
  C      2.92466000      4.55688000      2.22977000
  O      3.67037000      5.65055000      2.42032000
  C     -0.01343730      2.90411000     -5.85398000
  O     -0.39437600      3.84879000     -6.75225000
  C     -3.96013000     -4.45420000      0.99982300
  O     -4.64779000     -5.53854000      0.86596100
  C     -0.68541200     -4.91112000      4.04464000
  O     -0.33116900     -5.82811000      4.85486000
  C      2.40432000     -2.19930000     -5.03559000
  O      2.52622000     -2.59741000     -6.25895000
  C     -3.55289000      2.36558000     -4.33178000
  O     -4.18278000      3.29818000     -5.17552000
  C      1.28773000      5.64379000      1.79071000
  O      1.92840000      6.78310000      2.06489000
  C     -5.78401000      0.82697300     -0.30095000
  O     -7.05124000      0.92533400     -0.03278130
  C     -0.27171600      0.65837800      5.71616000
  O     -0.47991700      1.04095000      6.93702000
  C      3.97182000     -4.28145000      1.97975000
  O      4.55618000     -5.12903000      2.73758000
  C     -3.34901000     -1.96248000      4.89440000
  O     -4.02187000     -2.48456000      5.88374000
  C     -0.30633900     -0.09892320     -5.94965000
  O     -0.19403200     -0.48021500     -7.18016000
  C      1.81854000      2.70630000      5.26920000
  O      1.70520000      3.21031000      6.47453000
  C     -2.70800000      5.11765000     -1.81218000
  O     -3.21886000      6.05995000     -2.52466000
