110
Energy = -11113.29722265 au
 Ni      0.06712730     -3.54440000     -2.30808000
 Ni     -1.38656000     -0.21874500     -1.17305000
 Ni      0.58763600     -4.25349000      0.22249100
 Ni     -0.57739000      4.20517000     -0.33339400
 Ni     -1.21689000      2.36362000     -2.02063000
 Ni     -3.18024000      0.51710900      0.66610500
 Ni     -0.95496900     -0.85919600      1.29003000
 Ni     -0.07707330      3.45333000      2.22478000
 Ni      0.32538100     -0.99213800     -3.08338000
 Ni      3.19121000     -0.52449400     -0.72424900
 Ni      0.73267700     -1.62246000     -0.54577100
 Ni      2.52211000     -2.42175000     -2.42544000
 Ni      3.37005000      2.00635000     -1.42501000
 Ni      1.89780000     -0.39263900      3.68006000
 Ni      1.38534000      0.22683500      1.16044000
 Ni      2.73987000      0.12826200     -3.27685000
 Ni      1.20873000      3.40843000     -2.03606000
 Ni     -2.02468000     -2.09626000     -2.93247000
 Ni      3.57483000     -1.09110000      1.83144000
 Ni     -1.61463000     -2.71110000     -0.41949200
 Ni      3.85485000      1.35533000      1.08205000
 Ni      0.95745400      0.86405100     -1.30735000
 Ni     -1.77419000      0.38165800     -3.74317000
 Ni     -3.87027000     -1.32656000     -1.00819000
 Ni      2.10494000      2.04526000      2.88713000
 Ni     -0.30197200      0.96463400      3.08174000
 Ni      2.87834000     -3.12040000     -0.01670370
 Ni     -1.19718000     -3.34872000      2.08027000
 Ni     -2.90194000      3.08074000     -0.20407600
 Ni      1.64275000      2.73527000      0.39388900
 Ni     -2.40414000      2.31699000      2.37814000
 Ni     -2.65186000     -0.18684200      3.15178000
 Ni      0.56151600      1.43588000     -3.89472000
 Ni     -0.72808500      1.61578000      0.51984500
 Ni     -3.32849000     -2.05256000      1.46794000
 Ni     -0.54468400     -1.47565000      3.84020000
 Ni     -3.62116000      1.22413000     -1.78048000
 Ni      1.16975000     -2.28782000      1.92442000
  C      3.51754000      2.21473000     -4.53708000
  O      4.22015000      2.73852000     -5.47845000
  C     -3.35776000     -2.91085000      4.14638000
  O     -4.03710000     -3.52707000      5.04906000
  C      5.60120000     -0.43506000     -0.76965000
  O      6.83576000     -0.35624800     -1.11263000
  C     -5.69395000      1.16407000     -0.06030360
  O     -6.92415000      1.73558000     -0.09642320
  C     -1.76677000      5.14556000     -2.43022000
  O     -1.55085000      6.20134000     -3.16972000
  C      1.28950000     -0.01274860     -5.77995000
  O      1.87606000     -0.44255700     -6.84483000
  C      1.85699000     -4.76525000      2.61641000
  O      2.33922000     -5.63581000      3.43082000
  C     -3.68871000      3.94078000     -2.43519000
  O     -4.40628000      4.88052000     -2.97271000
  C     -0.94801600      1.36085000      5.42363000
  O     -1.17987000      2.19290000      6.40297000
  C      6.06189000     -0.82038600      2.65651000
  O      6.97587000     -0.70769200      3.68018000
  C      5.97305000     -0.70058700      1.10502000
  O      7.23716000     -0.96907000      0.98239900
  C      4.76832000      1.37003000      3.66737000
  O      5.78564000      1.95386000      4.17409000
  C      5.96079000      2.16214000     -0.82743400
  O      7.19183000      1.94614000     -1.12932000
  C     -0.41827200      0.11920800      5.85210000
  O     -0.37469200     -0.02196960      7.14639000
  C      0.39993200     -6.65454000     -0.88549600
  O      0.97065000     -7.74019000     -1.27164000
  C      2.91054000      4.99150000     -0.85944800
  O      3.54680000      6.10575000     -0.77141000
  C      1.04760000     -2.74361000     -4.90674000
  O      1.14808000     -3.08618000     -6.14267000
  C     -0.20139300      0.10546300     -5.99066000
  O     -0.42148100      0.24485000     -7.26797000
  C     -5.56414000      2.97838000     -0.81752700
  O     -6.60547000      3.74495000     -0.79780800
  C      2.85045000     -5.73816000     -0.36779400
  O      2.97361000     -7.00829000     -0.27336600
  C      1.45705000     -5.49659000     -2.77946000
  O      1.87177000     -6.61906000     -3.24967000
  C     -5.99009000     -0.30098500     -0.55694800
  O     -7.17199000     -0.76318400     -0.38924500
  C      3.59647000     -4.25654000     -3.40256000
  O      4.00234000     -5.29734000     -4.10654000
  C      4.45201000      3.79977000      0.92317500
  O      5.21812000      4.80743000      1.15058000
  C      5.03678000     -2.44275000     -1.81232000
  O      6.20317000     -3.05193000     -1.79752000
  C     -5.42387000      0.69155200      1.38753000
  O     -6.47162000      0.62342300      2.14791000
  C     -5.34497000      0.45521200     -3.34349000
  O     -6.32880000      0.45149400     -4.17202000
  C     -4.38698000     -3.96088000      0.08025450
  O     -5.07923000     -5.04257000      0.00581903
  C     -2.22596000      4.02348000     -3.38474000
  O     -2.54155000      4.29044000     -4.61794000
  C      3.48421000     -4.97195000     -1.44460000
  O      4.45183000     -5.81850000     -1.94443000
  C     -1.43094000     -1.17402000     -5.65825000
  O     -1.56359000     -1.81263000     -6.79981000
  C     -2.60594000      5.65802000     -1.25940000
  O     -3.43376000      6.63541000     -1.52909000
  C      5.19764000     -1.07309000     -2.32537000
  O      6.10008000     -0.91228100     -3.30462000
  C     -2.01660000     -4.98181000     -2.67345000
  O     -2.58112000     -6.12031000     -2.87121000
  C      3.68297000     -1.10325000     -5.23785000
  O      3.79650000     -1.46363000     -6.46887000
  C      4.42434000      0.11647000      4.31207000
  O      5.14890000     -0.18892500      5.31853000
