110
Energy = -12281.06803914 au
 Ni      0.20694800     -3.79084000     -2.14205000
 Ni     -1.41264000     -0.20877600     -1.24720000
 Ni      0.46490700     -4.61626000      0.31372700
 Ni     -0.52401300      4.08305000     -0.23059800
 Ni     -1.33183000      2.49009000     -2.17861000
 Ni     -3.15286000      0.65753100      0.69099900
 Ni     -1.01421000     -0.99251100      1.31145000
 Ni     -0.21574000      3.64243000      2.44178000
 Ni      0.43554800     -0.94842100     -3.05626000
 Ni      3.08528000     -0.55315500     -0.86714200
 Ni      0.73827600     -1.78652000     -0.52818200
 Ni      2.82512000     -2.59955000     -2.38174000
 Ni      3.35976000      2.04246000     -1.54132000
 Ni      1.80087000     -0.37690800      3.80175000
 Ni      1.30470000      0.18679900      1.18952000
 Ni      3.11186000      0.05467230     -3.61299000
 Ni      1.29351000      3.61578000     -1.93468000
 Ni     -1.99062000     -2.48907000     -2.86513000
 Ni      3.40272000     -1.27580000      1.73976000
 Ni     -1.69854000     -3.02894000     -0.33255100
 Ni      3.66831000      1.26007000      1.03256000
 Ni      0.95692500      0.97650700     -1.39750000
 Ni     -2.00019000      0.55500900     -3.76675000
 Ni     -3.71312000     -1.25565000     -1.00598000
 Ni      2.42973000      1.94507000      3.15218000
 Ni     -0.38379200      1.14751000      3.15338000
 Ni      2.74666000     -3.53463000      0.13147900
 Ni     -1.08999000     -3.61567000      2.19445000
 Ni     -3.13462000      3.37928000     -0.08363060
 Ni      1.59154000      2.69052000      0.49608900
 Ni     -2.79664000      2.53416000      2.64904000
 Ni     -2.71070000     -0.04334160      3.08728000
 Ni      0.53283700      1.62511000     -4.05324000
 Ni     -0.85514600      1.68118000      0.54987400
 Ni     -3.65531000     -2.05857000      1.45078000
 Ni     -0.63641300     -1.69833000      3.92823000
 Ni     -3.82250000      1.48104000     -1.66236000
 Ni      1.23460000     -2.51392000      2.04926000
  C      2.85270000     -3.91005000      2.16882000
  O      3.76299000     -4.30674000      2.99542000
  C      0.12646600     -4.47778000      3.51927000
  O     -0.28841800     -5.04289000      4.60685000
  C     -2.19465000     -2.92525000      4.81484000
  O     -2.39285000     -3.24208000      6.03537000
  C     -1.85859000      3.52341000     -4.10264000
  O     -2.18933000      4.75969000     -4.01543000
  C     -4.82769000      1.86913000      2.10262000
  O     -5.73645000      2.72271000      2.41582000
  C     -5.19126000     -0.71635100      1.69735000
  O     -6.21861000     -1.26386000      2.22279000
  C      4.27237000      1.50886000     -4.23744000
  O      5.26471000      1.42405000     -5.05787000
  C     -3.70051000      3.35688000     -2.20183000
  O     -4.46841000      4.14590000     -3.05494000
  C      3.88792000      4.68839000     -1.70299000
  O      4.98441000      5.07775000     -1.17170000
  C     -4.21223000     -4.05071000      0.74490900
  O     -5.19206000     -4.79942000      1.06710000
  C     -2.42985000      2.22677000     -5.03100000
  O     -3.43583000      2.15815000     -5.83418000
  C      0.69302100     -5.82735000     -2.39339000
  O      0.40952800     -7.06550000     -2.24497000
  C     -0.72797600      5.48747000      2.94436000
  O     -0.03592140      6.55212000      3.15997000
  C     -3.68414000      4.66419000      1.08404000
  O     -4.24624000      5.80426000      0.81245000
  C      3.17462000     -4.71089000     -2.45316000
  O      4.33651000     -4.84697000     -3.01733000
  C     -3.24059000      4.57915000      2.68515000
  O     -4.20147000      4.60622000      3.54530000
  C      4.07467000      4.02210000     -3.15680000
  O      5.07439000      4.65976000     -3.64358000
  C     -5.73903000      0.84283500      1.26499000
  O     -7.04576000      0.82345400      1.48124000
  C      3.99493000      1.69418000      4.20917000
  O      4.22025000      2.24799000      5.36595000
  C     -1.64534000      2.41650000      4.42723000
  O     -1.77404000      2.78239000      5.64594000
  C      4.90116000      0.75772000      3.62798000
  O      6.04654000      0.27276300      3.89696000
  C      1.92516000     -5.43078000     -3.18263000
  O      2.34244000     -5.77101000     -4.36758000
  C      1.14623000      0.22629400      5.91713000
  O      1.75067000      0.67515500      6.96024000
  C     -1.60009000     -5.17255000      0.00538953
  O     -2.36025000     -6.24128000      0.40028700
  C      0.87800400     -5.85097000      1.69046000
  O      0.69011800     -7.11689000      1.84784000
  C     -2.22746000      5.79331000      2.73080000
  O     -2.75099000      6.97163000      2.59255000
  C      3.63776000      2.89500000     -4.24564000
  O      3.12943000      3.51124000     -5.24992000
  C     -2.63027000     -4.25206000     -3.01891000
  O     -3.09204000     -4.83781000     -4.07754000
  C     -2.81021000     -4.88231000     -1.69315000
  O     -3.67682000     -5.81406000     -1.52990000
  C      2.81441000     -5.07085000     -0.93798300
  O      2.94195000     -6.34120000     -0.75987300
  C      4.34504000     -1.18211000     -2.81669000
  O      5.67999000     -1.35262000     -3.17707000
  C     -5.36008000      1.21367000     -0.28551800
  O     -6.41527000      1.82009000     -0.62960900
  C     -0.89141600      2.76599000     -5.24586000
  O     -0.43687700      3.32674000     -6.31134000
  C      1.95400000     -0.18791700     -5.24773000
  O      2.46389000     -0.59670100     -6.41281000
  C      2.45541000      4.99633000     -1.37243000
  O      2.44572000      6.16975000     -0.83667300
  C      1.28254000     -5.32746000      3.04492000
  O      2.11857000     -5.89888000      3.93783000
