110
Energy = -12591.00780634 au
 Ni      0.34132900     -4.03790000     -2.01034000
 Ni     -1.47804000     -0.26268200     -1.15305000
 Ni      0.69988500     -4.79901000      0.58317400
 Ni     -0.63352000      4.39385000     -0.30468600
 Ni     -1.40139000      2.49665000     -1.91497000
 Ni     -3.33476000      0.59177300      0.69762800
 Ni     -0.98681700     -0.88796600      1.37789000
 Ni      0.12607600      3.47338000      2.37125000
 Ni      0.37970400     -1.21114000     -3.02357000
 Ni      3.13330000     -0.63568800     -0.64900600
 Ni      0.75879500     -1.72173000     -0.49334000
 Ni      2.75557000     -2.56357000     -2.72734000
 Ni      3.40306000      1.87445000     -1.45844000
 Ni      1.85625000     -0.32029400      4.10549000
 Ni      1.48469000      0.32332500      1.35716000
 Ni      2.88750000      0.03280860     -3.46326000
 Ni      1.28503000      3.32563000     -2.00800000
 Ni     -2.09440000     -2.72349000     -2.80964000
 Ni      3.73654000     -0.88106000      2.15801000
 Ni     -1.57830000     -2.84663000     -0.38565600
 Ni      3.98404000      1.46272000      1.23386000
 Ni      0.99824200      0.87059600     -1.20792000
 Ni     -2.19333000      0.01768770     -3.53085000
 Ni     -3.88739000     -1.54933000     -1.22072000
 Ni      2.50621000      2.47677000      3.19081000
 Ni     -0.18786600      1.06528000      3.65432000
 Ni      2.88498000     -3.16406000     -0.01122310
 Ni     -1.00174000     -3.53626000      1.99793000
 Ni     -3.06766000      3.28526000     -0.04568860
 Ni      1.80495000      3.00452000      0.49358200
 Ni     -2.42864000      2.77558000      2.68807000
 Ni     -2.95247000     -0.17601400      3.05895000
 Ni      0.56626300      1.31894000     -3.69495000
 Ni     -0.77899800      1.71214000      0.63399100
 Ni     -3.68856000     -2.11657000      1.26184000
 Ni     -0.55321100     -1.45102000      3.88813000
 Ni     -3.80244000      1.14586000     -1.66412000
 Ni      1.26154000     -2.39716000      2.06715000
  C      4.42456000     -2.45483000     -3.63655000
  O      5.14761000     -3.30695000     -4.26796000
  C     -5.22310000     -0.86657200      1.35612000
  O     -6.37821000     -1.01593000      0.78599600
  C      5.10414000      0.55880200      2.53792000
  O      6.08293000      0.87023900      3.42981000
  C      5.14913000      0.96533800     -0.54701000
  O      6.47089000      0.87741100     -0.88464000
  C     -3.61355000     -0.52089400     -4.61060000
  O     -4.31050000      0.19086800     -5.43187000
  C     -3.39321000      4.29373000      2.64042000
  O     -3.80533000      5.21531000      3.47702000
  C     -4.24242000     -1.87961000     -4.69779000
  O     -5.24388000     -2.34794000     -5.40290000
  C      2.16016000      4.66702000      1.88376000
  O      1.97407000      5.93576000      1.97827000
  C      1.48934000     -3.22680000     -4.15479000
  O      1.69399000     -3.69309000     -5.38962000
  C      1.51947000     -6.06867000     -0.55651100
  O      1.71098000     -7.30495000     -0.27292600
  C      2.01144000     -5.48925000     -1.93490000
  O      1.76482000     -6.14028000     -3.03803000
  C      1.34307000      5.29960000     -0.66462000
  O      1.96192000      6.47051000     -0.61487300
  C     -4.95392000     -0.30932200      2.78154000
  O     -5.80035000     -0.02545690      3.70756000
  C      0.74955000     -5.10044000      2.73358000
  O      0.29081400     -5.88262000      3.64871000
  C      2.31426000     -0.30676400     -5.17104000
  O      2.78371000     -0.72148000     -6.31884000
  C      4.49244000     -3.87735000     -1.28064000
  O      5.75132000     -3.66173000     -1.23071000
  C     -4.87751000      2.42002000      0.52943100
  O     -5.63545000      2.82839000      1.49786000
  C      3.02137000     -2.72803000      3.21894000
  O      3.70500000     -3.64599000      3.91621000
  C     -2.23785000     -4.75311000     -2.38304000
  O     -3.21853000     -5.57174000     -2.59092000
  C     -5.38553000      1.83313000     -0.81126800
  O     -6.57561000      1.77391000     -1.29800000
  C      2.67679000      3.90819000      4.54786000
  O      3.38964000      4.97749000      4.44235000
  C     -3.65014000     -3.04512000     -3.84065000
  O     -4.24174000     -4.16466000     -4.03170000
  C     -1.06806000     -5.72156000      0.82023800
  O     -1.68691000     -6.86891000      0.78022800
  C      3.52089000      0.16277500      4.65968000
  O      4.32339000      0.08609310      5.69831000
  C     -0.93978000     -5.41125000     -2.02013000
  O     -0.75861700     -6.66372000     -1.76694000
  C     -2.19144000      4.19157000     -1.36634000
  O     -2.57929000      5.22390000     -2.08425000
  C      4.78447000     -0.00778775     -3.45853000
  O      5.74198000      0.70671800     -3.93764000
  C      5.31077000     -1.33562000     -3.01563000
  O      6.39818000     -1.49768000     -2.33660000
  C     -0.36300200      2.49549000      4.81969000
  O      0.32994900      2.52254000      5.91653000
  C      3.64692000     -5.03173000     -1.96400000
  O      4.28099000     -6.05034000     -2.44211000
  C      0.04745030     -0.13526600      5.04967000
  O     -0.30914600     -0.06832200      6.30702000
  C     -1.69895000      3.16517000      4.51832000
  O     -2.35985000      3.84762000      5.39046000
  C      3.51299000      3.80045000      1.91267000
  O      4.73331000      4.23767000      1.95456000
  C     -4.35211000     -3.79283000      0.43732200
  O     -4.50896000     -4.95287000      0.97961500
  C     -4.76466000     -3.35757000     -0.91967200
  O     -5.56632000     -3.93762000     -1.74454000
  C      2.02249000     -5.19966000      1.89231000
  O      3.13735000     -5.84178000      1.89987000
