110
Energy = -12103.03529097 au
 Ni      0.01044800     -3.44648000     -2.29781000
 Ni     -1.39394000     -0.25252100     -1.16023000
 Ni      0.50834400     -4.53015000      0.48551400
 Ni     -0.59314900      4.30105000     -0.45442400
 Ni     -1.30886000      2.43499000     -2.00905000
 Ni     -3.39827000      0.55469100      0.76546000
 Ni     -1.02581000     -0.88665900      1.32572000
 Ni     -0.17854700      3.70926000      2.45130000
 Ni      0.39654700     -1.13093000     -3.25479000
 Ni      3.35517000     -0.53404900     -0.71073500
 Ni      0.75341100     -1.66045000     -0.54103900
 Ni      2.38375000     -2.41650000     -2.50876000
 Ni      3.42008000      2.04833000     -1.70986000
 Ni      1.74186000     -0.26926200      3.91910000
 Ni      1.38507000      0.27430700      1.22060000
 Ni      2.98553000      0.12666000     -3.18380000
 Ni      1.13568000      3.45059000     -2.17870000
 Ni     -2.20112000     -2.18507000     -2.96871000
 Ni      3.56649000     -1.19702000      1.83979000
 Ni     -1.66919000     -2.91335000     -0.47390000
 Ni      3.74125000      1.36346000      1.19341000
 Ni      0.99496800      0.90174100     -1.35691000
 Ni     -1.79670000      0.39548200     -3.58718000
 Ni     -3.86076000     -1.26485000     -1.07149000
 Ni      2.07034000      2.43553000      3.17176000
 Ni     -0.31040800      1.11445000      3.28365000
 Ni      2.92806000     -3.32231000      0.05791550
 Ni     -1.13395000     -3.48498000      2.16692000
 Ni     -2.86586000      3.19042000     -0.27804800
 Ni      1.74153000      3.00726000      0.57751200
 Ni     -2.50860000      2.60480000      2.40001000
 Ni     -2.73515000     -0.17128100      3.20607000
 Ni      0.40394900      1.80396000     -3.92609000
 Ni     -0.75935300      1.69060000      0.56240500
 Ni     -3.39394000     -2.31783000      1.45123000
 Ni     -0.74131700     -1.48475000      4.00445000
 Ni     -3.61466000      1.17470000     -1.68121000
 Ni      1.16765000     -2.27108000      1.94527000
  C      5.32710000     -0.63299100     -0.85159800
  O      6.43944000     -1.26301000     -0.72865400
  C      4.33275000      1.77078000      3.73667000
  O      5.18175000      2.03262000      4.64105000
  C     -2.26181000      3.05055000      4.74708000
  O     -2.85273000      3.46246000      5.81482000
  C      0.20343400     -2.75863000     -4.92568000
  O     -0.34549100     -3.32277000     -5.93646000
  C      0.60706200     -5.16041000      2.87883000
  O      0.86257300     -5.45993000      4.10203000
  C      3.78771000      3.61463000     -3.36651000
  O      4.49858000      4.65834000     -3.62783000
  C     -2.78250000      4.89294000      2.48301000
  O     -3.83051000      5.63211000      2.55722000
  C     -0.40501000      4.57585000     -3.85139000
  O     -0.58883200      5.65029000     -4.55591000
  C     -2.66827000     -4.51449000     -1.58689000
  O     -2.78880000     -5.64730000     -2.19147000
  C      5.13360000     -0.58147600      3.54909000
  O      6.27725000     -0.73511900      4.12118000
  C     -2.77398000     -2.82420000      4.31563000
  O     -3.36797000     -3.40677000      5.28220000
  C     -0.27708700      3.37938000     -4.79062000
  O     -0.56163600      3.60447000     -6.03240000
  C     -1.35442000      0.19648600      5.36297000
  O     -1.43058000      0.44859600      6.72102000
  C     -2.67645000      5.20815000     -1.85769000
  O     -3.40298000      6.20915000     -1.55910000
  C     -3.98548000     -4.46036000     -0.44228700
  O     -4.84596000     -5.26013000     -0.97648100
  C      3.09087000     -4.91966000     -1.52265000
  O      3.75828000     -5.99019000     -1.66379000
  C     -5.53987000      0.45070000     -0.22428200
  O     -6.80131000      0.16350300     -0.20764500
  C     -5.04530000      0.81390000      2.21009000
  O     -6.15313000      0.56819300      2.82308000
  C     -4.23943000     -3.99454000      0.96156000
  O     -5.13612000     -4.69806000      1.56919000
  C      2.47103000      4.59562000      2.68760000
  O      2.79978000      5.56139000      3.47432000
  C      1.27384000      0.38035500      5.68765000
  O      1.14237000      0.02143070      6.91691000
  C     -5.57638000      1.50820000      0.95478600
  O     -6.14643000      2.61899000      0.92533500
  C     -4.39919000     -2.06040000     -3.69897000
  O     -5.11047000     -2.32158000     -4.71230000
  C      1.61726000     -2.31861000     -4.89471000
  O      2.34998000     -2.39224000     -5.94691000
  C      3.27896000     -4.40943000      2.02157000
  O      3.94298000     -5.40925000      2.43982000
  C      5.67396000      0.42323200     -1.86229000
  O      6.69786000      1.17660000     -1.76957000
  C      2.76816000      4.63535000      1.24670000
  O      3.50750000      5.58259000      0.78596200
  C      1.14585000     -5.91791000      1.78119000
  O      1.78561000     -7.03410000      1.82837000
  C     -1.45401000      5.35071000      2.73236000
  O     -1.32004000      6.58961000      3.08489000
  C      4.88313000      0.20436300     -3.18483000
  O      5.88366000     -0.07186250     -3.95237000
  C     -3.03105000      3.86002000     -2.58744000
  O     -3.51158000      4.37566000     -3.66696000
  C      3.29321000      2.84536000     -4.46412000
  O      3.47373000      2.88403000     -5.72048000
  C     -1.40766000     -5.79183000      0.60092200
  O     -1.76976000     -6.97384000      0.33232100
  C     -1.07067000      5.34898000     -2.28060000
  O     -0.99230300      6.61509000     -2.50464000
  C      1.42923000      1.86456000      5.79989000
  O      2.21967000      2.39978000      6.63253000
  C      0.57344100      2.72577000      4.79053000
  O      0.18018600      3.59287000      5.66889000
