110
Energy = -12103.05339468 au
 Ni      0.17910900     -3.44143000     -2.47336000
 Ni     -1.37544000     -0.25482600     -1.20974000
 Ni      0.64795200     -4.25834000      0.48468800
 Ni     -0.51495900      4.08246000     -0.24109400
 Ni     -1.24341000      2.39317000     -2.06994000
 Ni     -3.38440000      0.54962400      0.84275100
 Ni     -0.97554700     -0.92180600      1.36407000
 Ni     -0.01892220      3.38600000      2.25620000
 Ni      0.38328500     -1.05658000     -3.27254000
 Ni      3.41471000     -0.53423600     -0.78890500
 Ni      0.77165900     -1.68067000     -0.53157100
 Ni      2.65061000     -2.33536000     -2.44064000
 Ni      3.47395000      1.86086000     -1.57392000
 Ni      1.80854000     -0.49652400      3.91476000
 Ni      1.45390000      0.19010300      1.22276000
 Ni      3.04524000      0.16061900     -3.53172000
 Ni      1.07393000      3.53844000     -2.18537000
 Ni     -1.97532000     -2.19574000     -3.07476000
 Ni      3.63431000     -1.35650000      1.97751000
 Ni     -1.68531000     -3.07915000     -0.37442300
 Ni      4.20692000      1.51046000      1.25294000
 Ni      0.98821900      0.85659500     -1.38722000
 Ni     -1.86309000      0.65315800     -3.79357000
 Ni     -3.67245000     -1.35219000     -1.07011000
 Ni      2.36656000      1.97841000      3.02169000
 Ni     -0.27739500      0.90558300      3.33966000
 Ni      3.19866000     -3.08982000      0.08444390
 Ni     -1.21606000     -3.44771000      2.13886000
 Ni     -3.10413000      3.07214000     -0.13080400
 Ni      1.73713000      2.67714000      0.41861300
 Ni     -2.39622000      2.38593000      2.45184000
 Ni     -2.51981000     -0.16170600      3.47593000
 Ni      0.51288500      1.69605000     -3.88128000
 Ni     -0.77142600      1.57943000      0.52444500
 Ni     -3.57521000     -1.86083000      1.44652000
 Ni     -0.48890800     -1.69002000      4.30585000
 Ni     -3.56552000      1.23581000     -1.69862000
 Ni      1.27692000     -2.44605000      2.14773000
  C      4.92907000      1.69582000      3.20070000
  O      6.19817000      1.75910000      3.43568000
  C     -2.50782000     -2.40412000      4.99690000
  O     -2.87990000     -3.01178000      6.04420000
  C      0.48200400     -4.05028000      4.29894000
  O      0.17406400     -5.21300000      4.68823000
  C     -5.11647000      2.16773000      0.18524800
  O     -6.34108000      2.50186000      0.46729500
  C      5.65938000      0.95583800     -0.27081600
  O      6.93718000      0.82256700     -0.27890900
  C     -2.20234000      2.30175000     -4.85300000
  O     -3.03814000      2.62777000     -5.78440000
  C     -2.81404000     -4.98460000      0.92181100
  O     -3.68322000     -5.81995000      1.36154000
  C     -2.66598000      2.73088000      4.79481000
  O     -2.74900000      3.52694000      5.80420000
  C      2.78491000     -0.58203700     -5.27209000
  O      3.40258000     -0.38729100     -6.40341000
  C      4.00861000      1.99932000     -4.03998000
  O      4.67012000      2.48858000     -5.03424000
  C     -3.50536000      4.20107000     -2.11729000
  O     -4.10267000      5.24474000     -2.52190000
  C      1.75731000     -1.57153000     -5.39725000
  O      1.52027000     -2.14679000     -6.51604000
  C     -5.56306000     -1.28352000      1.61064000
  O     -6.76290000     -1.74402000      1.66832000
  C     -2.30459000     -5.16118000     -0.41614100
  O     -2.53014000     -6.20772000     -1.12546000
  C     -1.91961000      0.31574100      5.39514000
  O     -2.29808000      1.04211000      6.38868000
  C     -0.63565600     -0.32220100      6.00463000
  O     -0.43157100     -0.92904300      7.12741000
  C     -5.29699000      0.14134800      1.81297000
  O     -6.23935000      0.87300600      2.29846000
  C      5.07495000     -1.88574000     -2.52515000
  O      5.76120000     -2.46340000     -3.48056000
  C      5.26380000     -0.77041300      3.48749000
  O      6.36059000     -0.90812700      4.13938000
  C      3.98857000     -3.37250000      2.53347000
  O      4.82321000     -4.00552000      3.29316000
  C      1.77752000     -4.39361000      3.32721000
  O      2.72432000     -4.63291000      4.16483000
  C      4.02356000      1.77057000      4.34025000
  O      4.39303000      1.74032000      5.56844000
  C      0.77887500     -3.58750000     -4.54055000
  O      1.36049000     -4.33314000     -5.40573000
  C      1.46819000     -5.22443000      2.08991000
  O      1.68894000     -6.44882000      2.41194000
  C      3.54825000     -4.96635000     -1.23293000
  O      4.26368000     -6.03177000     -1.22236000
  C      4.92747000     -0.31221700     -2.48620000
  O      6.16905000     -0.00460255     -2.65471000
  C      0.53543500      0.86366800      5.83945000
  O      0.14240400      1.92744000      6.43312000
  C      4.05804000      3.72533000      1.54280000
  O      4.95970000      4.61793000      1.70563000
  C      1.08437000     -2.82033000      4.99686000
  O      1.81612000     -3.22518000      5.98768000
  C      4.90925000     -2.48819000     -1.07447000
  O      6.13714000     -2.83365000     -0.88739400
  C     -1.50055000      3.61486000     -4.50286000
  O     -2.08447000      4.80247000     -4.58333000
  C      0.08117220      4.01650000     -4.67605000
  O      0.33068200      4.33773000     -5.89717000
  C     -2.94942000     -4.29848000     -2.67718000
  O     -3.73465000     -5.19637000     -3.11495000
  C      0.36844500      4.96273000     -3.43807000
  O     -0.18865900      6.08606000     -3.70954000
  C     -0.44128200     -2.70890000     -4.87686000
  O     -0.78435000     -2.68135000     -6.11610000
  C      1.89366000      0.20714500      5.92161000
  O      2.27131000      0.18494900      7.16151000
