110
Energy = -11995.04131788 au
 Ni     -0.07263430     -3.69159000     -2.30253000
 Ni     -1.41316000     -0.27441400     -1.18233000
 Ni      0.49464500     -4.86314000      0.29805400
 Ni     -0.58349000      4.81181000     -0.29629000
 Ni     -1.19407000      2.57198000     -1.96185000
 Ni     -3.24315000      0.58062800      0.81889400
 Ni     -1.03998000     -0.95233700      1.34396000
 Ni     -0.21233900      3.84214000      2.42603000
 Ni      0.28407300     -1.02191000     -3.04295000
 Ni      3.24283000     -0.57724900     -0.75156100
 Ni      0.71420200     -1.74609000     -0.52667700
 Ni      2.61942000     -2.36789000     -2.34022000
 Ni      3.21960000      2.17080000     -1.50627000
 Ni      1.76258000     -0.26843600      3.61888000
 Ni      1.34837000      0.30154500      1.18180000
 Ni      2.67010000      0.02690960     -3.35877000
 Ni      1.30787000      3.85488000     -2.10878000
 Ni     -2.25505000     -2.17211000     -3.02243000
 Ni      3.42047000     -1.32042000      1.76936000
 Ni     -1.71223000     -3.00378000     -0.29526300
 Ni      3.70256000      1.39235000      1.24186000
 Ni      0.97915600      0.94059700     -1.27379000
 Ni     -2.14464000      0.20357500     -3.86911000
 Ni     -3.77154000     -1.61420000     -0.90469200
 Ni      2.23198000      2.65481000      3.31922000
 Ni     -0.41645200      1.16108000      3.23611000
 Ni      2.76520000     -3.50646000      0.11149300
 Ni     -1.20605000     -4.02533000      2.32194000
 Ni     -3.07466000      3.21018000      0.01539030
 Ni      1.81703000      3.25342000      0.52918700
 Ni     -2.61344000      2.52474000      2.63954000
 Ni     -2.72491000     -0.17208400      3.41365000
 Ni      0.55667400      1.43173000     -3.81864000
 Ni     -0.75329100      1.77515000      0.58120300
 Ni     -3.44007000     -2.43397000      1.46329000
 Ni     -0.68444500     -1.75964000      3.82601000
 Ni     -3.45735000      1.16267000     -1.74663000
 Ni      1.14654000     -2.61738000      1.97895000
  C      0.50062900     -4.88092000      2.69973000
  O      0.74663100     -5.86828000      3.60224000
  C     -3.61367000     -2.96020000     -4.50402000
  O     -4.28566000     -3.83750000     -5.14640000
  C     -4.01017000     -3.87871000      3.70709000
  O     -4.90450000     -3.94681000      4.60064000
  C     -1.28129000     -5.26720000     -2.42069000
  O     -1.21104000     -6.08316000     -3.41158000
  C     -0.69797700      4.74709000     -2.58970000
  O     -1.17523000      5.73284000     -3.44721000
  C      2.89450000     -5.26447000     -0.90147100
  O      3.77708000     -5.84251000     -1.64567000
  C     -4.02235000     -1.44564000      4.24479000
  O     -4.64389000     -1.50563000      5.43368000
  C     -2.64485000     -5.11440000     -1.60832000
  O     -3.74457000     -5.18136000     -2.31180000
  C     -1.87040000     -2.06880000      5.76568000
  O     -2.37741000     -3.09358000      6.35284000
  C      3.05195000      3.79952000     -3.47101000
  O      3.46494000      4.66792000     -4.38422000
  C     -1.36937000      5.05673000      3.21519000
  O     -1.44920000      5.83206000      4.23478000
  C      2.27326000      4.54354000      3.37279000
  O      2.57496000      5.50771000      4.16431000
  C     -4.38882000     -3.91588000      2.25432000
  O     -5.14557000     -4.94598000      2.06033000
  C      1.75880000     -0.24425900     -5.30085000
  O      2.21065000     -0.64307400     -6.46743000
  C     -1.46688000      5.75701000      1.02961000
  O     -1.37141000      7.04129000      0.91857100
  C      2.52682000      4.84823000     -0.69999900
  O      3.71072000      5.38301000     -0.82091800
  C      4.69361000     -1.67922000     -1.94823000
  O      5.96924000     -1.87339000     -2.16964000
  C     -1.26596000     -6.12562000     -0.68065800
  O     -1.60840000     -7.35867000     -0.77713400
  C     -3.75408000      4.30156000      2.10458000
  O     -4.81785000      4.86172000      2.50509000
  C     -2.23608000      5.86003000      2.34631000
  O     -3.17084000      6.74337000      2.43193000
  C      1.17817000      2.19688000      5.06663000
  O      1.39403000      2.86027000      6.16699000
  C     -3.41928000     -4.74072000     -0.26481100
  O     -3.39131000     -5.81055000      0.37954700
  C     -1.14280000     -5.81217000      0.95788900
  O     -1.54110000     -6.89058000      1.54013000
  C      2.99942000      4.20037000      2.05452000
  O      3.80568000      5.10918000      1.60216000
  C      4.30669000      1.86582000      3.61372000
  O      5.12010000      2.19908000      4.55364000
  C      1.88069000      6.14677000      0.02808090
  O      2.12673000      6.73691000      1.12160000
  C     -4.78316000      2.04582000      1.24640000
  O     -6.08027000      2.08831000      1.46556000
  C      3.03063000     -3.89634000      2.20586000
  O      3.53589000     -4.99720000      2.91468000
  C     -3.15563000      4.18480000     -2.03318000
  O     -3.83637000      5.27125000     -2.58938000
  C     -4.37363000     -1.69421000     -4.60824000
  O     -5.63749000     -1.55000000     -4.34341000
  C     -2.01682000      1.82368000      4.62539000
  O     -2.11273000      2.36527000      5.84397000
  C     -3.45617000     -0.48627900     -4.91424000
  O     -4.07137000     -0.03110060     -5.94556000
  C      1.67083000     -5.99496000     -0.52687100
  O      1.47782000     -7.26737000     -0.69028200
  C     -4.38363000     -3.47758000     -0.31772400
  O     -5.46134000     -4.17801000     -0.49154300
  C     -2.48851000     -4.03257000      3.71550000
  O     -2.38946000     -4.98358000      4.59777000
  C      0.52680500      6.27787000     -0.67446700
  O      0.50207100      7.56839000     -0.81227200
