110
Energy = -12370.92213935 au
 Ni      0.06483070     -3.42308000     -2.28661000
 Ni     -1.39254000     -0.18711700     -1.26969000
 Ni      0.41466500     -4.54833000      0.33836600
 Ni     -0.40346900      4.34716000     -0.41108200
 Ni     -1.27960000      2.47029000     -2.05999000
 Ni     -3.12675000      0.60990200      0.56232300
 Ni     -0.98731700     -0.88162000      1.31622000
 Ni     -0.05134300      3.78991000      2.55728000
 Ni      0.27444400     -1.05486000     -3.23725000
 Ni      3.52900000     -0.54633300     -0.69512100
 Ni      0.77085700     -1.61887000     -0.52081700
 Ni      2.57903000     -2.31818000     -2.45388000
 Ni      3.63621000      2.14582000     -1.45761000
 Ni      2.17695000     -0.23502300      3.76542000
 Ni      1.53634000      0.22086000      1.22001000
 Ni      2.89085000      0.30861300     -3.07920000
 Ni      1.42238000      3.46218000     -2.09485000
 Ni     -2.06446000     -2.16936000     -3.17512000
 Ni      3.97994000     -1.21362000      2.08851000
 Ni     -1.58897000     -2.76563000     -0.35405800
 Ni      4.08957000      1.51358000      1.03936000
 Ni      1.04091000      0.89813800     -1.29013000
 Ni     -1.91717000      0.38347500     -3.76321000
 Ni     -3.69914000     -1.44781000     -1.06917000
 Ni      1.94962000      2.31604000      3.13476000
 Ni     -0.28323800      1.09718000      3.16145000
 Ni      2.88998000     -2.92427000      0.16937400
 Ni     -1.02889000     -3.58545000      2.26719000
 Ni     -3.11679000      3.13879000     -0.14796300
 Ni      1.78976000      3.03250000      0.52390300
 Ni     -2.34882000      2.76565000      2.65246000
 Ni     -3.00001000     -0.11536000      3.03628000
 Ni      0.75444400      1.61530000     -3.78260000
 Ni     -0.71317500      1.74386000      0.56340800
 Ni     -3.75794000     -2.14397000      1.39878000
 Ni     -0.45501700     -1.50126000      3.74061000
 Ni     -3.73744000      1.40393000     -1.94223000
 Ni      1.42222000     -2.56521000      2.23510000
  C      3.13705000     -3.72664000      2.93557000
  O      3.26174000     -4.99235000      3.27606000
  C     -1.60833000      3.20072000      4.51789000
  O     -2.35318000      3.61212000      5.49556000
  C     -5.00484000     -0.12505800      2.97689000
  O     -5.84983000      0.58255000      3.65295000
  C     -2.54327000      4.70176000      2.53196000
  O     -3.23303000      5.64692000      3.13034000
  C     -1.95851000      4.64007000     -2.43070000
  O     -1.61871000      5.41588000     -3.39799000
  C      5.60195000      2.10357000     -1.53579000
  O      6.65515000      2.68793000     -1.98397000
  C     -0.14823000      3.56799000      4.87535000
  O      0.21677200      4.58868000      5.56290000
  C     -3.37157000      4.80093000     -1.61974000
  O     -4.06001000      5.86375000     -1.41637000
  C      4.82151000     -2.75265000     -2.47449000
  O      5.75169000     -3.03838000     -3.28890000
  C      4.31617000     -2.84950000      3.01364000
  O      5.38283000     -3.25745000      3.62571000
  C      3.91746000      0.15417000      4.67478000
  O      4.25345000      0.57091100      5.84829000
  C      6.14520000     -0.10336700      0.72118000
  O      7.07939000     -0.74694800      1.47151000
  C      1.40534000      5.42499000     -0.50873700
  O      1.89211000      6.63500000     -0.31618800
  C      5.24180000     -1.17782000     -0.08388290
  O      5.98365000     -2.01119000     -0.72027000
  C     -5.15654000      2.11716000     -0.52557800
  O     -6.46319000      2.36205000     -0.40783700
  C      6.03288000      0.68944300     -1.51287000
  O      7.21893000      0.26690000     -1.25132000
  C     -4.20019000      0.04690640     -4.31847000
  O     -5.51027000      0.11300000     -4.50239000
  C     -0.16127000     -4.61878000      3.67422000
  O     -0.50092500     -5.68582000      4.32412000
  C     -1.23770000     -5.67730000     -0.32079800
  O     -1.49943000     -6.92764000     -0.33768700
  C      2.73120000      2.80479000     -4.07549000
  O      3.31205000      3.44447000     -5.06935000
  C      3.86100000      3.74403000      0.45341600
  O      4.48951000      4.91733000      0.68450000
  C     -2.10142000     -0.98943800     -5.79998000
  O     -1.39690000     -0.88197300     -6.90223000
  C     -3.51859000      3.66106000     -2.78947000
  O     -4.29686000      3.77936000     -3.80013000
  C     -4.46615000     -3.82507000     -0.08858740
  O     -5.05930000     -4.54941000     -0.97298000
  C      1.62925000     -5.56724000      1.72796000
  O      1.68557000     -6.70886000      2.28881000
  C      1.80775000      4.72855000      2.49894000
  O      2.29507000      5.92765000      2.78372000
  C     -0.33561600     -2.49260000     -4.87023000
  O      0.31514500     -2.85470000     -5.93380000
  C      0.90495300      2.33699000      4.89105000
  O      1.27605000      2.26047000      6.12869000
  C     -3.51806000     -0.17902600     -5.61620000
  O     -4.00858000      0.09861280     -6.77879000
  C      4.88305000     -0.16993100      3.61788000
  O      6.13525000      0.06567930      3.80803000
  C     -5.37920000     -1.13087000      1.98493000
  O     -6.59968000     -1.36734000      1.62838000
  C     -1.85215000     -2.49058000     -5.33086000
  O     -2.50367000     -3.42710000     -5.93489000
  C      6.05711000      1.37111000      0.85974200
  O      7.14938000      2.00989000      0.82711200
  C      1.10638000     -3.91024000      3.98345000
  O      1.80939000     -4.16514000      5.03150000
  C      5.01065000     -0.06396480     -2.48486000
  O      5.86282000     -0.53524600     -3.30115000
  C     -4.34196000     -4.17082000      1.29137000
  O     -4.68201000     -5.25181000      1.90675000
