110
Energy = -12388.76062054 au
 Ni      0.16233900     -3.88294000     -2.28967000
 Ni     -1.33939000     -0.25523100     -1.16334000
 Ni      0.35049100     -4.41854000      0.33824100
 Ni     -0.79596000      4.37817000     -0.14930500
 Ni     -1.25164000      2.57377000     -2.03161000
 Ni     -3.16045000      0.52257700      0.74524600
 Ni     -1.00238000     -0.94920900      1.37367000
 Ni     -0.11298700      3.42051000      2.21863000
 Ni      0.47179700     -1.08243000     -3.19337000
 Ni      3.36188000     -0.62289700     -0.79569100
 Ni      0.76292500     -1.73612000     -0.53833600
 Ni      2.42218000     -2.73371000     -2.54024000
 Ni      3.47856000      2.08173000     -1.78158000
 Ni      1.79277000     -0.14029600      4.06198000
 Ni      1.42991000      0.27482000      1.23527000
 Ni      2.86493000      0.03019620     -3.40214000
 Ni      1.39035000      3.49718000     -2.33556000
 Ni     -2.03223000     -2.10451000     -2.85044000
 Ni      3.46002000     -1.41970000      1.84063000
 Ni     -1.79316000     -2.97291000     -0.34133300
 Ni      3.79381000      1.54656000      1.07200000
 Ni      1.04669000      0.92463200     -1.36797000
 Ni     -1.72089000      0.63407200     -3.67017000
 Ni     -3.87461000     -1.36874000     -1.12599000
 Ni      2.20485000      2.38701000      2.94816000
 Ni     -0.32033700      0.97726000      3.13215000
 Ni      2.88390000     -3.38229000      0.00503767
 Ni     -1.13036000     -3.63447000      2.41717000
 Ni     -3.00624000      3.49293000     -0.08420820
 Ni      1.69694000      2.97646000      0.29796000
 Ni     -2.55005000      2.34090000      2.31249000
 Ni     -2.99114000     -0.20128700      3.25684000
 Ni      0.59925800      1.93402000     -3.87983000
 Ni     -0.74681000      1.65042000      0.48559700
 Ni     -3.41344000     -2.05833000      1.70378000
 Ni     -0.74054000     -1.34167000      4.00605000
 Ni     -3.43170000      1.23384000     -1.74330000
 Ni      1.17652000     -2.49393000      2.02265000
  C      3.27100000      5.12494000     -1.27548000
  O      3.41783000      6.41972000     -1.23317000
  C      1.47890000     -2.41548000     -4.41751000
  O      1.61037000     -2.75686000     -5.72672000
  C      4.80103000     -1.84436000     -1.20728000
  O      6.19486000     -1.62883000     -1.39050000
  C     -4.80161000      0.53127400      3.17189000
  O     -5.64982000     -0.04753160      3.95923000
  C     -4.71509000      2.91295000      1.40103000
  O     -5.67668000      3.78111000      1.38999000
  C      3.60791000      0.80626200     -5.20167000
  O      4.19605000      0.50878600     -6.29917000
  C     -1.59105000      2.93388000     -4.47322000
  O     -2.47767000      3.26848000     -5.34288000
  C      0.50026700     -5.43298000      2.19831000
  O      0.34010000     -6.60235000      2.71677000
  C     -4.91600000     -1.71748000     -3.10280000
  O     -6.12892000     -1.81080000     -3.47840000
  C     -0.42115600      3.88732000     -4.14086000
  O     -0.25155500      5.05270000     -4.66018000
  C     -5.27522000      1.65286000      2.22067000
  O     -6.55984000      1.72122000      2.20839000
  C      4.71166000      3.49193000      2.25361000
  O      5.97254000      3.55434000      2.53457000
  C     -3.04172000      4.19449000     -1.81007000
  O     -3.69365000      5.17809000     -2.47561000
  C      3.58112000      3.69277000      3.24780000
  O      3.63575000      4.87407000      3.74880000
  C      2.21754000     -4.65805000     -1.93413000
  O      2.79242000     -5.82313000     -2.41794000
  C      3.19934000     -4.91316000      1.66101000
  O      3.60925000     -6.07338000      1.32730000
  C     -2.77282000     -4.66468000     -0.36921800
  O     -3.90566000     -5.24762000     -0.50294100
  C     -1.38476000     -5.10673000     -2.37717000
  O     -1.98857000     -5.91974000     -3.16576000
  C      4.92581000      0.46170400     -3.24250000
  O      5.99135000     -0.18007800     -3.56542000
  C      3.87012000     -3.62950000      2.24259000
  O      4.70176000     -4.15171000      3.07829000
  C     -4.10811000     -2.56655000      3.43555000
  O     -5.29497000     -2.51800000      3.93505000
  C      2.54428000      0.22974600      6.08684000
  O      2.24143000      0.43676000      7.31879000
  C     -2.16073000     -4.20911000      3.82777000
  O     -1.93144000     -5.11583000      4.71601000
  C      4.25830000      4.15661000      0.83071200
  O      5.23283000      4.96045000      0.56466700
  C      2.84955000      4.76681000      0.36824400
  O      2.30051000      5.73347000      1.01981000
  C     -1.77480000     -5.64556000     -0.97587200
  O     -1.52459000     -6.84381000     -0.55870000
  C      3.75567000      2.32654000     -4.81638000
  O      4.33907000      2.94167000     -5.84232000
  C     -1.15116000     -0.15909800      5.56624000
  O     -2.01433000     -0.09303460      6.51796000
  C      0.15782600      0.62403200      5.53900000
  O      0.32207100      1.37873000      6.57361000
  C     -3.62150000     -3.93485000      3.93710000
  O     -4.48337000     -4.84009000      4.26827000
  C     -2.13722000      5.35741000      0.66494700
  O     -2.49287000      6.60782000      0.98595300
  C      3.63547000      0.12364600      5.22627000
  O      4.89267000      0.18259500      5.49883000
  C      4.97662000      1.97198000     -3.59663000
  O      5.96958000      2.78775000     -3.67474000
  C      4.11583000      4.43256000     -2.26937000
  O      4.88928000      4.81071000     -3.20213000
  C      1.89719000     -4.91332000      2.64757000
  O      2.39476000     -5.06570000      3.82013000
  C      2.56958000      3.17282000     -4.14784000
  O      2.73810000      4.29667000     -4.77271000
