110
Energy = -12355.20530389 au
 Ni      0.13738100     -3.85823000     -2.16082000
 Ni     -1.48810000     -0.21339200     -1.15922000
 Ni      0.70601100     -4.66933000      0.28075100
 Ni     -0.57006700      4.41915000     -0.49880900
 Ni     -1.26017000      2.42934000     -2.01465000
 Ni     -3.39244000      0.47410300      0.67924800
 Ni     -1.08814000     -0.90276500      1.31901000
 Ni     -0.23631300      3.43048000      2.32407000
 Ni      0.34637500     -0.95174000     -2.96093000
 Ni      3.01667000     -0.50524200     -0.62719100
 Ni      0.67975400     -1.72535000     -0.55784400
 Ni      2.76841000     -2.55550000     -2.38388000
 Ni      3.21321000      2.06879000     -1.59437000
 Ni      2.05529000     -0.28069600      3.71389000
 Ni      1.37325000      0.28929400      1.19641000
 Ni      2.98926000      0.08922520     -3.26800000
 Ni      1.18469000      3.80718000     -2.37074000
 Ni     -2.02011000     -2.19252000     -2.78277000
 Ni      3.72703000     -0.94882800      1.98887000
 Ni     -1.64977000     -3.00867000     -0.43049200
 Ni      3.79747000      1.69198000      1.06084000
 Ni      0.91315000      0.93992800     -1.32995000
 Ni     -1.90077000      0.71236600     -3.69673000
 Ni     -3.94494000     -1.56433000     -0.94747200
 Ni      2.13468000      2.37029000      2.79846000
 Ni     -0.40812600      1.03637000      3.22100000
 Ni      2.86082000     -3.21422000     -0.02196510
 Ni     -1.22333000     -3.59616000      1.99047000
 Ni     -3.11238000      3.18870000     -0.30221500
 Ni      1.57566000      2.91205000      0.35474700
 Ni     -2.72349000      2.33382000      2.59966000
 Ni     -2.96171000     -0.23822900      3.12566000
 Ni      0.49521200      1.72078000     -3.80940000
 Ni     -0.84798700      1.66731000      0.53531100
 Ni     -3.49631000     -2.47437000      1.47326000
 Ni     -0.94304200     -1.64836000      3.90209000
 Ni     -3.86859000      1.15943000     -1.67876000
 Ni      1.10994000     -2.23444000      1.91082000
  C      3.12356000      4.18085000      2.30001000
  O      3.13656000      5.39999000      2.71443000
  C     -5.45416000     -3.32540000      1.56278000
  O     -6.16315000     -4.39463000      1.59868000
  C     -0.81977300      3.60740000     -4.74585000
  O     -0.80929400      4.10775000     -5.92091000
  C     -1.69037000     -4.96384000     -2.11351000
  O     -1.75931000     -6.18015000     -2.43458000
  C     -1.91243000      5.22906000     -1.83172000
  O     -1.82907000      6.27348000     -2.58554000
  C     -5.08844000      0.14124400      3.05595000
  O     -5.80615000     -0.34266700      4.04148000
  C     -1.27751000      2.44153000      4.82197000
  O     -1.04143000      2.28846000      6.05721000
  C      0.61242600     -5.25277000      2.66618000
  O      0.79501300     -5.68816000      3.86345000
  C     -3.23400000      4.53749000     -1.80282000
  O     -4.19746000      4.96920000     -2.54484000
  C      1.34825000     -5.92509000      1.62796000
  O      2.10570000     -6.97051000      1.65051000
  C     -5.04382000      2.38164000      0.91826700
  O     -6.27258000      2.78877000      1.05164000
  C      3.34269000     -4.86892000     -1.38772000
  O      4.18187000     -5.85749000     -1.30351000
  C     -0.06328780      4.47539000     -3.67323000
  O     -0.03944250      5.71018000     -4.05392000
  C      3.84368000      1.84056000     -4.36678000
  O      4.50822000      2.07356000     -5.42055000
  C     -5.44989000      3.07127000     -0.97550800
  O     -6.56889000      3.66192000     -1.31316000
  C     -5.64544000      0.44927200     -1.06545000
  O     -6.87252000      0.89481900     -0.97423500
  C     -2.70212000     -5.12434000      0.02623820
  O     -2.35772000     -6.35120000     -0.15283700
  C      4.74724000     -2.50804000     -2.72366000
  O      5.70541000     -3.36732000     -2.67370000
  C     -6.02417000     -1.98912000      1.50555000
  O     -7.27400000     -1.87416000      1.81598000
  C     -2.30134000     -2.39397000      5.17343000
  O     -2.35826000     -2.65906000      6.43640000
  C      4.81234000     -1.10580000     -3.11124000
  O      5.98014000     -0.66673000     -3.45328000
  C     -5.00680000      1.67061000      2.47401000
  O     -5.75020000      2.34887000      3.26545000
  C     -2.06035000      2.65997000     -4.40442000
  O     -3.06981000      3.11328000     -5.06181000
  C      2.10286000     -5.24477000     -2.27917000
  O      2.29870000     -5.90242000     -3.38230000
  C      5.07677000     -0.47024100      3.46651000
  O      6.35815000     -0.45422700      3.60608000
  C      2.75984000      4.01399000     -3.69446000
  O      3.11507000      4.88692000     -4.56073000
  C     -3.34116000     -4.71180000     -1.46923000
  O     -3.98957000     -5.40545000     -2.33807000
  C      4.10659000     -0.07517950      4.45772000
  O      4.54791000      0.32136300      5.60607000
  C     -2.10615000      3.63160000      4.43354000
  O     -2.57380000      4.28723000      5.40811000
  C     -4.37820000     -3.50293000     -0.94824500
  O     -5.49647000     -4.13252000     -0.86036600
  C      4.25215000      3.61853000      1.49655000
  O      5.30884000      4.31306000      1.26483000
  C      1.33615000     -5.94510000     -1.04306000
  O      1.71599000     -7.16627000     -0.93612800
  C     -5.55075000     -0.36870700      1.63609000
  O     -6.59642000      0.27297700      1.30609000
  C      1.42935000      5.54374000     -0.41544400
  O      1.84128000      6.75293000     -0.19039900
  C     -3.37290000     -2.79975000      4.30274000
  O     -4.41931000     -3.48560000      4.54471000
  C     -3.32767000     -4.58398000      1.36079000
  O     -4.14336000     -5.53167000      1.67542000
