110
Energy = -12192.95548248 au
 Ni      0.34169300     -3.65764000     -2.52332000
 Ni     -1.37239000     -0.23620000     -1.20131000
 Ni      0.78887100     -4.35429000      0.12726600
 Ni     -0.38997400      4.58973000     -0.09573010
 Ni     -1.25082000      2.54374000     -1.95438000
 Ni     -3.33362000      0.61418200      0.67662600
 Ni     -0.97073700     -0.87458900      1.25414000
 Ni     -0.25575900      3.77242000      2.58880000
 Ni      0.34567900     -0.94616200     -3.11521000
 Ni      3.45542000     -0.51791500     -0.78108200
 Ni      0.83648500     -1.69041000     -0.62227300
 Ni      2.62742000     -2.64501000     -2.57341000
 Ni      3.63046000      2.01394000     -1.54226000
 Ni      1.88100000     -0.36930500      3.59719000
 Ni      1.49333000      0.24845500      1.15881000
 Ni      2.70508000      0.18970800     -3.26629000
 Ni      1.51421000      3.60714000     -2.01441000
 Ni     -2.25069000     -2.04401000     -3.16489000
 Ni      4.13197000     -1.32418000      2.16591000
 Ni     -1.61369000     -2.82798000     -0.51324000
 Ni      4.17862000      1.26971000      1.22651000
 Ni      1.04122000      0.89403800     -1.32839000
 Ni     -2.09439000      0.33014500     -3.70866000
 Ni     -3.71516000     -1.56426000     -1.04390000
 Ni      1.91276000      2.28166000      3.25842000
 Ni     -0.33515000      1.19824000      3.27167000
 Ni      3.19802000     -3.45312000      0.04898500
 Ni     -1.03032000     -3.53783000      2.14065000
 Ni     -2.76612000      3.45523000     -0.25224300
 Ni      1.68553000      2.81161000      0.39758100
 Ni     -2.55170000      2.67341000      2.29048000
 Ni     -2.60737000     -0.06500750      3.12298000
 Ni      0.69180000      1.71409000     -3.80921000
 Ni     -0.73722500      1.69819000      0.57806700
 Ni     -3.34159000     -2.39139000      1.33345000
 Ni     -0.50756300     -1.45368000      3.74518000
 Ni     -3.54511000      1.04949000     -1.80984000
 Ni      1.29663000     -2.35210000      1.89549000
  C     -3.79524000     -1.56844000     -4.41857000
  O     -4.42124000     -2.38221000     -5.20753000
  C     -3.97072000     -4.20391000      0.86127000
  O     -4.39008000     -5.27223000      1.44245000
  C     -3.95753000     -3.85939000     -0.60460000
  O     -4.55532000     -4.72929000     -1.36078000
  C      3.73100000     -3.17179000      3.00402000
  O      4.53037000     -3.73659000      3.82370000
  C      4.46349000     -3.08208000     -3.22243000
  O      5.21371000     -3.31033000     -4.24440000
  C     -1.20525000      1.08042000      5.24727000
  O     -0.98711200      1.69911000      6.33135000
  C      5.38178000     -3.19281000     -2.06779000
  O      6.67208000     -2.96224000     -2.20371000
  C      3.06090000     -5.30285000     -0.03661850
  O      3.75921000     -6.26219000     -0.61066700
  C      4.93522000     -0.17810100     -2.21236000
  O      6.13801000     -0.63784900     -2.28080000
  C      2.48825000     -4.83712000     -2.69175000
  O      3.50476000     -5.46740000     -3.17802000
  C      1.26908000     -5.62996000     -2.38929000
  O      1.14305000     -6.90170000     -2.35413000
  C     -0.95785000      5.86267000      1.48850000
  O     -1.30235000      7.11828000      1.59193000
  C      0.47072100     -4.81674000      3.08758000
  O      0.46929600     -5.69077000      3.98541000
  C      2.69601000      4.91369000     -0.83810400
  O      3.85496000      5.48106000     -0.81584100
  C     -5.27699000      1.34742000      1.41616000
  O     -6.03675000      1.77170000      2.36165000
  C      5.89594000     -1.29351000      0.57024600
  O      6.94887000     -1.02079000     -0.10882100
  C      4.86248000     -3.51779000     -0.69478200
  O      5.88372000     -4.04924000     -0.12012600
  C      5.33223000      1.15816000      2.79160000
  O      6.20722000      1.92988000      3.36260000
  C     -2.95875000      4.64782000      2.01534000
  O     -3.78302000      5.63981000      1.95044000
  C      0.93840200     -6.73305000      0.41329600
  O      1.63347000     -7.70014000     -0.08341540
  C     -5.60589000      0.94252100      0.10133100
  O     -6.76790000      0.82997400     -0.43433700
  C     -4.17384000     -0.14004500     -4.31107000
  O     -5.28061000      0.29711600     -4.80544000
  C      2.10751000      3.36659000     -4.35239000
  O      2.54870000      3.99508000     -5.38595000
  C      0.36884900     -2.99262000     -4.92997000
  O      0.41175200     -4.07214000     -5.59685000
  C     -2.42107000      4.31838000     -1.87263000
  O     -3.02382000      5.15631000     -2.68582000
  C      2.75083000      2.08541000      5.37262000
  O      2.41660000      2.66380000      6.47101000
  C     -0.29378500     -1.68786000     -5.55413000
  O     -1.02374000     -1.30788000     -6.53413000
  C      0.43329800      3.28808000      4.39746000
  O      0.36167400      3.78569000      5.68225000
  C      5.95030000     -2.05891000      1.77181000
  O      6.98136000     -2.69093000      2.22796000
  C      1.25093000     -1.64992000     -5.39715000
  O      2.20344000     -1.41436000     -6.20884000
  C      5.52468000      1.36962000     -0.25965900
  O      6.90698000      1.30967000     -0.41061900
  C      5.20968000     -0.24199300      3.24134000
  O      5.95034000     -0.69536700      4.20530000
  C     -1.79939000      5.39045000      2.79940000
  O     -1.79855000      5.84877000      3.96429000
  C      1.41393000      5.59192000     -0.38782000
  O      1.48491000      6.86241000     -0.14745700
  C      4.26630000      1.77519000     -3.73070000
  O      4.53798000      2.56865000     -4.69568000
  C      5.41508000      1.18678000     -2.93199000
  O      6.60813000      1.66226000     -3.10209000
