110
Energy = -11952.81306052 au
 Ni     -0.01222490     -3.46855000     -2.42065000
 Ni     -1.36146000     -0.25377300     -1.24082000
 Ni      0.57712900     -4.36253000      0.14083100
 Ni     -0.47866400      4.50519000     -0.34070100
 Ni     -1.21964000      2.38791000     -2.07330000
 Ni     -3.00753000      0.49768500      0.67462000
 Ni     -0.95388600     -0.89923400      1.33679000
 Ni      0.11876100      3.63547000      2.20772000
 Ni      0.25256100     -1.03264000     -3.19542000
 Ni      3.14827000     -0.56327300     -0.72821800
 Ni      0.74333100     -1.66522000     -0.56648100
 Ni      2.68029000     -2.33882000     -2.38121000
 Ni      3.24203000      1.95640000     -1.42456000
 Ni      1.98836000     -0.30203500      3.92456000
 Ni      1.41780000      0.23750200      1.20175000
 Ni      2.77516000     -0.00588497     -3.49595000
 Ni      1.10409000      3.54739000     -2.12625000
 Ni     -2.08526000     -2.20796000     -3.21831000
 Ni      3.63445000     -1.04013000      2.02357000
 Ni     -1.62121000     -2.85070000     -0.44824500
 Ni      3.79593000      1.30880000      1.21333000
 Ni      0.94164600      0.87704600     -1.37141000
 Ni     -1.96502000      0.26334000     -3.77117000
 Ni     -3.68454000     -1.35541000     -1.18919000
 Ni      2.38410000      2.28256000      2.99069000
 Ni     -0.25144700      0.95610600      3.02776000
 Ni      2.92882000     -3.33657000     -0.04669870
 Ni     -1.09847000     -3.47503000      2.16764000
 Ni     -2.79650000      3.15326000     -0.02531510
 Ni      1.68855000      2.90634000      0.53204600
 Ni     -2.45843000      2.49095000      2.45091000
 Ni     -2.74228000     -0.12228800      3.47299000
 Ni      0.36675400      1.65873000     -3.95226000
 Ni     -0.70131400      1.68011000      0.50429300
 Ni     -3.28903000     -1.99466000      1.61941000
 Ni     -0.55841100     -1.59766000      3.97578000
 Ni     -3.52112000      1.05477000     -2.01481000
 Ni      1.25073000     -2.42169000      1.98913000
  C     -3.90896000     -2.60629000      3.81078000
  O     -5.09901000     -3.08181000      4.22849000
  C      4.78883000     -2.91003000     -1.63152000
  O      5.99752000     -3.20890000     -1.98841000
  C      3.89593000      2.16514000      4.24127000
  O      4.83932000      2.91106000      4.69536000
  C      3.16335000      4.28219000      2.14400000
  O      4.30066000      4.89089000      2.23968000
  C     -2.77733000     -2.62687000      5.18879000
  O     -3.51553000     -2.69847000      6.25010000
  C      0.98356100     -0.49451300     -5.76513000
  O      0.77201000     -0.34278600     -7.03329000
  C     -0.74180900      3.34441000     -4.59516000
  O     -0.70051700      3.85242000     -5.78209000
  C     -1.76417000      4.05426000     -3.72790000
  O     -2.80504000      4.51681000     -4.34286000
  C     -2.57164000     -3.25186000     -5.13159000
  O     -2.29570000     -3.61265000     -6.35302000
  C      0.73873800      0.11319500      5.80662000
  O      0.95891000      0.51978200      6.98455000
  C     -0.17137000     -2.96962000     -4.75332000
  O      0.14616800     -3.80411000     -5.69980000
  C     -1.37828000     -3.02532000      5.48350000
  O     -1.21819000     -3.74623000      6.53203000
  C      3.33114000     -5.09364000     -1.30207000
  O      4.34675000     -5.63145000     -1.89998000
  C     -1.97938000      5.24605000     -2.24642000
  O     -3.13824000      5.74361000     -2.56399000
  C      1.54246000      5.63034000     -0.38593100
  O      1.97156000      6.80700000     -0.19526900
  C      2.38267000     -4.52092000      2.20640000
  O      2.91239000     -5.33680000      3.03930000
  C     -3.18462000     -4.24980000     -3.07677000
  O     -3.37808000     -5.50713000     -3.18507000
  C     -3.73702000     -3.37164000     -4.18730000
  O     -4.91252000     -3.47259000     -4.84203000
  C     -4.70419000     -1.12577000     -3.82073000
  O     -5.81572000     -1.65812000     -4.10146000
  C      5.16309000      0.04958390      3.18310000
  O      6.29617000      0.42944200      3.64645000
  C     -4.40130000      0.29402600     -4.10343000
  O     -5.22809000      0.79245800     -4.97091000
  C     -1.56427000     -5.34884000     -0.79887000
  O     -2.22269000     -6.41567000     -0.89356900
  C      3.90167000      0.90187400      5.05553000
  O      4.19070000      0.80446300      6.31501000
  C      4.44922000     -0.61985000      4.42000000
  O      5.00937000     -1.38680000      5.27145000
  C     -0.34694200     -1.55165000     -5.45997000
  O     -1.08635000     -1.46318000     -6.49394000
  C     -2.30091000      3.17769000      4.70638000
  O     -2.83351000      3.48749000      5.83836000
  C     -2.92675000      0.45624700      5.52710000
  O     -2.46643000      1.03051000      6.58124000
  C      4.78999000     -0.85172000     -2.81111000
  O      6.08704000     -0.90662200     -3.26900000
  C      1.17429000      5.04238000     -3.99941000
  O      0.46382000      5.92871000     -4.60858000
  C     -1.17456000      6.20313000     -1.44121000
  O     -1.14990000      7.45456000     -1.67922000
  C      2.43856000     -0.44204100     -5.36497000
  O      3.26176000     -0.68655000     -6.32826000
  C     -2.84189000      4.93786000      1.77747000
  O     -3.44043000      5.99119000      2.16081000
  C     -4.05191000     -0.35384700      5.39377000
  O     -5.02254000     -0.83446000      6.08492000
  C      0.38490700     -4.93579000      3.15811000
  O      0.44818500     -5.80279000      4.08181000
  C      2.06636000     -5.72208000     -1.13751000
  O      1.86103000     -6.93781000     -1.53496000
  C      1.85993000      5.01721000      2.19862000
  O      1.91320000      6.29399000      2.34393000
