110
Energy = -10305.03431153 au
 Ni      0.07896120     -3.47540000     -2.23847000
 Ni     -1.36637000     -0.22823800     -1.15919000
 Ni      0.48132400     -4.18464000      0.21518000
 Ni     -0.47157200      4.17310000     -0.22225600
 Ni     -1.13914000      2.23418000     -1.90694000
 Ni     -3.02775000      0.49248100      0.65389400
 Ni     -0.94588300     -0.86178300      1.28449000
 Ni     -0.08084050      3.46755000      2.23134000
 Ni      0.29391500     -0.95866500     -2.98439000
 Ni      3.03802000     -0.49446500     -0.65917900
 Ni      0.71391200     -1.60875000     -0.53180900
 Ni      2.42077000     -2.32375000     -2.38120000
 Ni      3.29169000      1.97794000     -1.43115000
 Ni      1.82721000     -0.40332500      3.65365000
 Ni      1.36703000      0.22843900      1.15896000
 Ni      2.64757000      0.15745800     -3.15638000
 Ni      1.17921000      3.36841000     -2.05947000
 Ni     -2.03393000     -2.07224000     -2.88340000
 Ni      3.49616000     -1.13306000      1.81821000
 Ni     -1.59493000     -2.70398000     -0.41016100
 Ni      3.73056000      1.34184000      1.05796000
 Ni      0.94644500      0.86119500     -1.28525000
 Ni     -1.82978000      0.41529000     -3.65923000
 Ni     -3.71258000     -1.34269000     -1.05204000
 Ni      2.04147000      2.06860000      2.88993000
 Ni     -0.29112500      0.95503700      2.97235000
 Ni      2.82540000     -2.98925000      0.09071370
 Ni     -1.18150000     -3.37951000      2.04832000
 Ni     -2.80772000      2.98503000     -0.09420590
 Ni      1.59420000      2.70095000      0.41136700
 Ni     -2.40611000      2.32638000      2.37731000
 Ni     -2.63290000     -0.15643200      3.13443000
 Ni      0.52889600      1.52213000     -3.77324000
 Ni     -0.71331200      1.60816000      0.53140900
 Ni     -3.28149000     -1.99443000      1.42086000
 Ni     -0.51905700     -1.52258000      3.76520000
 Ni     -3.50121000      1.13803000     -1.82454000
 Ni      1.13651000     -2.24037000      1.90791000
  C      5.38895000     -0.42490900     -1.91596000
  O      6.58548000     -0.69891700     -2.23131000
  C     -0.61151300     -1.17009000     -5.66763000
  O     -0.59379100     -1.53010000     -6.86661000
  C      1.51797000     -5.76261000     -2.03979000
  O      2.02760000     -6.80908000     -2.53893000
  C      4.16388000     -0.31131100      4.71785000
  O      5.07559000     -0.19412700      5.63121000
  C      4.02009000      1.95833000      4.45744000
  O      4.97664000      2.15025000      5.28786000
  C      2.73905000      3.66715000     -4.22772000
  O      3.32504000      4.35441000     -5.11060000
  C     -3.16803000     -5.03479000      1.60722000
  O     -3.80245000     -6.13351000      1.53259000
  C      2.64256000     -0.48532000     -5.54595000
  O      2.87329000     -0.90997800     -6.75804000
  C      2.29691000      5.21377000      0.82164400
  O      3.05329000      6.23403000      1.06049000
  C      3.91563000     -3.85339000      2.51122000
  O      4.41177000     -4.75110000      3.28015000
  C      0.87400600      0.10759700     -5.93090000
  O      0.94730300     -0.17660100     -7.13842000
  C     -1.04228000     -6.08322000     -0.23697400
  O     -1.61328000     -7.24378000     -0.40978100
  C      1.30803000     -3.61267000      4.37536000
  O      1.78645000     -4.41876000      5.21670000
  C      0.10106500     -0.20215000      6.02909000
  O     -0.02036260      0.17003500      7.25027000
  C     -5.34342000      1.41894000      1.37691000
  O     -6.58698000      1.60115000      1.63717000
  C      1.60104000      1.58680000      5.61424000
  O      1.49002000      1.96902000      6.83353000
  C      0.52672900     -2.63397000     -5.09627000
  O      0.69087100     -3.06035000     -6.26736000
  C     -3.71522000      3.67555000     -2.84702000
  O     -4.22172000      4.57667000     -3.60429000
  C      1.45233000     -6.42208000     -0.27217300
  O      1.96524000     -7.55788000     -0.56810200
  C      5.21908000     -3.00173000     -0.65902200
  O      6.49338000     -3.24554000     -0.79473500
  C      4.20170000      3.90655000      1.60591000
  O      4.88131000      4.97899000      1.78961000
  C      0.87038600     -4.96629000      3.11332000
  O      1.28512000     -5.91306000      3.83457000
  C     -5.15300000      0.75520300     -3.65080000
  O     -6.20904000      0.63804200     -4.37869000
  C     -3.94692000      0.13331800     -4.93092000
  O     -4.84640000     -0.07231390     -5.86554000
  C      3.88670000      2.18255000     -4.37929000
  O      4.61040000      2.69589000     -5.28553000
  C     -2.63883000     -5.06768000     -0.48332500
  O     -3.35340000     -6.11701000     -0.63817600
  C     -2.38051000     -4.90498000     -2.39662000
  O     -3.01121000     -5.96477000     -2.66336000
  C     -1.99396000      5.22028000      2.90090000
  O     -2.50261000      6.32831000      3.29860000
  C      0.98375500      6.17471000     -0.06208050
  O      1.56051000      7.32318000      0.02448910
  C     -4.31390000     -4.16242000      0.20504700
  O     -5.03305000     -5.14000000      0.04530000
  C     -2.81379000      2.60641000     -4.59468000
  O     -3.34901000      3.45257000     -5.40148000
  C      5.85384000      1.00650000     -0.78316600
  O      7.09860000      0.90081700     -0.98283400
  C      5.22222000      0.44208600      3.32966000
  O      6.25718000      0.63644900      4.07255000
  C     -0.94036000      3.34215000     -4.88424000
  O     -1.32693000      4.24885000     -5.69080000
  C     -0.76598200      5.49380000     -2.56152000
  O     -1.21828000      6.39588000     -3.35278000
  C      4.85821000     -2.76185000     -2.47491000
  O      6.12928000     -2.97256000     -2.87487000
