110
Energy = -12184.37089055 au
 Ni     -0.11783100     -3.75772000     -2.17285000
 Ni     -1.40356000     -0.21302200     -1.12307000
 Ni      0.76658700     -4.26461000      0.33399300
 Ni     -0.47953600      4.57042000     -0.30317500
 Ni     -1.11369000      2.42968000     -1.97200000
 Ni     -3.39396000      0.59801500      0.76435000
 Ni     -1.01429000     -0.89896800      1.36100000
 Ni     -0.19956100      3.71718000      2.39918000
 Ni      0.26105700     -0.96235800     -2.95375000
 Ni      3.30475000     -0.43758200     -0.78685200
 Ni      0.74847100     -1.67179000     -0.48965800
 Ni      2.38136000     -2.41885000     -2.30034000
 Ni      3.34073000      2.22699000     -1.62231000
 Ni      1.72173000     -0.30686800      3.77733000
 Ni      1.40421000      0.22754300      1.20102000
 Ni      2.67797000      0.13989900     -3.10365000
 Ni      1.26120000      3.70260000     -1.98827000
 Ni     -2.34163000     -1.99797000     -2.98814000
 Ni      3.78419000     -1.21652000      1.65918000
 Ni     -1.72652000     -3.05959000     -0.40799400
 Ni      3.72715000      1.33890000      1.01020000
 Ni      0.99306500      0.95175100     -1.28832000
 Ni     -1.86727000      0.42396900     -3.60623000
 Ni     -3.72143000     -1.31693000     -1.08219000
 Ni      2.08204000      2.40901000      2.93607000
 Ni     -0.38547300      1.13931000      3.13519000
 Ni      3.04535000     -3.27173000      0.27517600
 Ni     -1.17753000     -3.54869000      2.18759000
 Ni     -2.80102000      3.22357000      0.15621700
 Ni      1.63163000      2.94873000      0.46457400
 Ni     -2.62294000      2.65877000      2.76900000
 Ni     -3.07245000     -0.00641170      3.21300000
 Ni      0.34494100      1.72100000     -3.85490000
 Ni     -0.75415100      1.70255000      0.58649600
 Ni     -3.49193000     -2.12372000      1.49586000
 Ni     -0.46607400     -1.58451000      4.01381000
 Ni     -3.60664000      1.19957000     -1.79263000
 Ni      1.20106000     -2.48039000      2.06779000
  C     -5.20230000      1.10343000      1.17397000
  O     -6.45312000      0.79901300      1.11439000
  C     -2.35317000      5.31308000      2.72036000
  O     -2.50108000      5.72830000      3.91631000
  C     -1.14996000      3.99361000     -4.11182000
  O     -1.79762000      5.01910000     -4.53922000
  C     -1.26764000      5.68670000      1.71886000
  O     -1.54448000      6.93904000      1.73334000
  C     -1.45440000     -5.22722000     -2.18888000
  O     -1.69738000     -6.31128000     -2.85602000
  C     -4.66025000      0.92601800      3.68245000
  O     -5.70363000      0.88559800      4.42901000
  C      2.98966000      4.87827000     -1.39609000
  O      4.03730000      5.61393000     -1.44103000
  C     -3.30661000     -4.53432000      1.20301000
  O     -4.02899000     -5.54290000      1.37488000
  C      1.59023000     -4.86357000      2.52978000
  O      1.48149000     -5.84504000      3.36076000
  C      5.79692000     -1.51437000      1.19047000
  O      6.98300000     -1.08316000      1.43363000
  C     -0.84604300      5.46177000     -2.28543000
  O     -0.47674500      6.32200000     -3.17372000
  C     -0.53458900      3.04622000      4.75749000
  O     -0.02049780      3.30950000      5.90010000
  C     -5.77453000      1.39393000     -0.93529300
  O     -6.97627000      1.72092000     -1.22107000
  C      1.81694000      5.54828000     -0.48373500
  O      1.55926000      6.78834000     -0.64268700
  C      4.82804000      3.02841000     -3.11150000
  O      6.01470000      3.14909000     -3.62266000
  C     -5.14513000     -1.09400000      2.72550000
  O     -6.44637000     -1.02739000      2.85369000
  C     -4.52009000     -0.45412100     -4.17696000
  O     -5.41287000      0.14770200     -4.87826000
  C      2.17398000      4.59972000      2.53427000
  O      2.83484000      5.36856000      3.33850000
  C     -2.12559000      5.51297000     -1.57193000
  O     -3.09445000      6.29837000     -1.85236000
  C     -3.41567000      4.59537000      1.84130000
  O     -4.24064000      5.57543000      1.89254000
  C      5.57627000      0.03305940     -1.00771000
  O      6.78931000      0.28042600     -0.67346400
  C      4.17379000      1.96278000      4.10918000
  O      4.87603000      2.42186000      5.08754000
  C      5.35847000     -2.55928000      0.30096400
  O      6.28200000     -3.16472000     -0.36475300
  C      3.67314000      3.69120000     -3.54000000
  O      3.54856000      4.56335000     -4.48147000
  C     -5.17407000      1.82667000      2.53445000
  O     -5.87433000      2.90013000      2.69982000
  C     -2.37430000     -4.94884000     -1.10624000
  O     -3.31038000     -5.80325000     -0.82109100
  C      5.19535000     -0.60257600     -2.23983000
  O      6.04500000     -1.07959000     -3.07527000
  C     -0.67519400     -0.34009600      5.90789000
  O     -1.38719000     -0.17176300      6.92584000
  C      0.28337800     -3.86061000      4.07049000
  O      0.48563900     -4.59089000      5.05837000
  C      2.90518000     -4.67604000      1.74337000
  O      3.83527000     -5.46562000      2.16915000
  C     -0.87067600      2.94703000     -5.02075000
  O     -1.32931000      3.12903000     -6.24465000
  C     -2.02703000      3.08398000      4.56569000
  O     -2.71699000      3.48816000      5.57447000
  C     -4.28190000     -1.83841000     -3.96229000
  O     -5.16739000     -2.64809000     -4.48130000
  C      2.25605000     -5.28348000     -1.45634000
  O      2.75231000     -6.41804000     -1.77499000
  C      2.46588000      5.26305000      1.07015000
  O      3.47015000      6.05836000      0.99876500
  C      0.72495700      0.15410000      5.80068000
  O      1.15560000      0.67297200      6.88999000
