110
Energy = -12427.50101416 au
 Ni      0.29565000     -3.85994000     -2.41325000
 Ni     -1.41311000     -0.20076500     -1.16669000
 Ni      0.76819400     -4.55256000      0.18735800
 Ni     -0.86336500      4.47978000     -0.22244600
 Ni     -1.29957000      2.35774000     -1.99690000
 Ni     -3.21224000      0.61392800      0.80117200
 Ni     -1.01614000     -0.88372400      1.31476000
 Ni     -0.29442100      3.78276000      2.22957000
 Ni      0.40968800     -1.05875000     -3.16878000
 Ni      3.44853000     -0.62248600     -0.72871800
 Ni      0.82306700     -1.75363000     -0.54551800
 Ni      2.68653000     -2.53014000     -2.63845000
 Ni      3.37670000      1.79927000     -1.47911000
 Ni      2.10630000     -0.12487700      4.05783000
 Ni      1.45025000      0.14535100      1.23244000
 Ni      2.87731000     -0.06061360     -3.38522000
 Ni      0.91673300      3.54915000     -2.32910000
 Ni     -1.97954000     -2.23603000     -2.98125000
 Ni      3.94428000     -1.30163000      1.88648000
 Ni     -1.60049000     -2.96794000     -0.49394500
 Ni      3.96181000      1.12619000      1.34900000
 Ni      0.96734800      0.87361600     -1.38921000
 Ni     -1.73030000      0.33824200     -3.71587000
 Ni     -3.78047000     -1.18816000     -0.99801000
 Ni      2.14072000      2.27795000      2.79720000
 Ni     -0.29245000      1.13192000      3.31642000
 Ni      2.96707000     -3.32301000      0.16437400
 Ni     -0.94275200     -3.58409000      2.05151000
 Ni     -2.90870000      3.15899000     -0.05428390
 Ni      1.72913000      2.94389000      0.45861800
 Ni     -2.60001000      2.66623000      2.38726000
 Ni     -3.01009000     -0.19083700      3.35952000
 Ni      0.32887400      1.59553000     -4.14952000
 Ni     -0.74286700      1.69058000      0.58855500
 Ni     -3.56463000     -1.93068000      1.67660000
 Ni     -0.54047500     -1.46469000      3.73711000
 Ni     -3.79494000      1.38549000     -1.67474000
 Ni      1.44953000     -2.60753000      2.32849000
  C      0.06039680      0.23598000     -5.67887000
  O     -0.61901300     -0.00384815     -6.74736000
  C      3.92766000      0.30540300      4.49413000
  O      4.45271000      0.26027200      5.66475000
  C      5.11469000     -1.04808000     -3.13316000
  O      5.95159000     -0.86050800     -4.09945000
  C      0.01454740      1.45168000      5.25630000
  O     -0.52378200      2.28370000      6.08592000
  C      4.55236000     -2.45366000     -2.75237000
  O      5.54457000     -3.27790000     -2.88423000
  C     -5.14116000     -0.99852900      2.54543000
  O     -6.27957000     -1.42033000      2.95990000
  C     -2.42115000      5.48553000      1.58543000
  O     -2.92873000      6.45774000      0.96261700
  C     -1.94016000      5.41256000     -1.58051000
  O     -1.75120000      6.68305000     -1.69883000
  C      0.91105500     -3.47438000     -4.40202000
  O      0.54743000     -4.41714000     -5.19946000
  C     -5.16652000      0.55064700      2.13690000
  O     -5.63577000      1.48559000      2.86695000
  C      2.32031000     -5.64414000      1.22122000
  O      2.26556000     -6.77704000      1.84080000
  C      3.58298000     -4.92737000      1.24175000
  O      4.67850000     -5.29452000      1.81722000
  C      1.03962000      0.47843000      5.66567000
  O      1.30982000      0.24293900      6.90856000
  C     -2.90308000      4.63050000     -2.49671000
  O     -3.09375000      5.28834000     -3.59003000
  C      1.75538000     -5.19679000     -1.63639000
  O      2.25172000     -6.38449000     -2.02819000
  C      5.01781000     -0.02828490     -1.87870000
  O      6.28123000      0.19108000     -1.67079000
  C     -0.59189000      3.42851000     -4.53432000
  O     -1.37774000      3.76491000     -5.50539000
  C     -3.80831000     -1.82014000      4.25014000
  O     -4.56596000     -2.11378000      5.34728000
  C      1.99819000     -2.53029000     -5.00604000
  O      2.43673000     -2.98229000     -6.13391000
  C      0.85984500     -4.50041000      3.31284000
  O      1.26546000     -4.94257000      4.45303000
  C     -0.00508298      4.53108000     -3.70963000
  O     -0.11219800      5.80005000     -3.92442000
  C     -1.14742000      5.44010000      2.46111000
  O     -1.28593000      6.28287000      3.42464000
  C      3.16323000      3.98850000      1.57575000
  O      3.68325000      5.16504000      1.62457000
  C      5.47753000     -0.67142800      0.92742400
  O      6.78225000     -0.97487700      0.82612200
  C     -5.86211000      0.40813800      0.66086600
  O     -7.02751000      0.06495420      1.09230000
  C     -1.53834000     -2.34882000     -5.25467000
  O     -1.77616000     -3.13945000     -6.23530000
  C      4.82815000      0.82342700      3.42037000
  O      6.05642000      1.15292000      3.66183000
  C      3.15439000     -3.32487000      3.44738000
  O      3.33784000     -4.24537000      4.35304000
  C     -3.91194000      3.48588000     -2.42864000
  O     -4.97756000      3.85431000     -3.11210000
  C      4.43026000     -2.80418000      3.02099000
  O      5.60740000     -3.23374000      3.34536000
  C      1.57742000      0.22935600     -6.01608000
  O      2.03441000      0.71123700     -7.13700000
  C     -1.65039000     -4.85226000     -1.63587000
  O     -2.39891000     -5.96983000     -1.79025000
  C      2.48472000     -0.81515200     -5.29007000
  O      3.60643000     -0.91776300     -5.93920000
  C     -3.41245000      4.34754000      2.43464000
  O     -4.07862000      5.20663000      3.14868000
  C     -5.59132000      0.78799400     -0.78700400
  O     -6.68652000      0.98451200     -1.44714000
  C      0.03972300     -5.50231000      2.52122000
  O     -0.10183400     -6.71860000      2.90670000
