110
Energy = -12055.65694797 au
 Ni     -0.15083100     -3.64873000     -2.23016000
 Ni     -1.41045000     -0.30174700     -1.22522000
 Ni      0.33958200     -4.23112000      0.37642300
 Ni     -0.48240500      4.09484000     -0.22636900
 Ni     -1.16978000      2.29183000     -2.13209000
 Ni     -3.25113000      0.40921500      0.79018400
 Ni     -1.01219000     -0.94476700      1.32765000
 Ni      0.07922620      3.54847000      2.30118000
 Ni      0.22351600     -1.01249000     -3.22346000
 Ni      3.08975000     -0.53765500     -0.62417400
 Ni      0.71139700     -1.68526000     -0.53340000
 Ni      2.46261000     -2.43933000     -2.35037000
 Ni      3.32221000      1.95265000     -1.38032000
 Ni      2.07347000     -0.36693000      3.81650000
 Ni      1.39169000      0.19545600      1.22999000
 Ni      2.59704000      0.13420600     -3.13780000
 Ni      1.03801000      3.40462000     -2.24652000
 Ni     -2.33146000     -2.19946000     -3.25803000
 Ni      3.52161000     -1.26574000      1.88978000
 Ni     -1.71700000     -2.98496000     -0.39388900
 Ni      3.88059000      1.26021000      1.09431000
 Ni      0.91827600      0.85430200     -1.33911000
 Ni     -1.89881000      0.46936600     -3.97629000
 Ni     -3.83112000     -1.51507000     -1.19530000
 Ni      2.24821000      2.17917000      3.08210000
 Ni     -0.26704700      0.93806400      3.13183000
 Ni      2.83460000     -3.26785000      0.20494500
 Ni     -1.31127000     -3.70973000      2.30865000
 Ni     -2.80849000      2.95162000     -0.08641580
 Ni      1.61903000      2.66967000      0.44805500
 Ni     -2.36145000      2.27512000      2.45322000
 Ni     -3.10661000     -0.37643800      3.32036000
 Ni      0.43328300      1.62830000     -3.99234000
 Ni     -0.73624800      1.57212000      0.52716100
 Ni     -3.36601000     -2.24244000      1.49144000
 Ni     -0.51908500     -1.72200000      3.78954000
 Ni     -3.44790000      1.10650000     -1.85229000
 Ni      1.15174000     -2.45803000      2.08521000
  C      4.83750000     -2.19046000     -2.76161000
  O      5.95094000     -2.75165000     -3.08703000
  C     -4.81056000     -3.59073000      0.14865800
  O     -5.88700000     -4.22813000     -0.19630200
  C      4.70302000      0.66377700      4.13474000
  O      5.99602000      0.76401200      3.94152000
  C     -1.56405000     -0.78129400     -5.83340000
  O     -2.10531000     -0.70979300     -6.99583000
  C     -0.32986300      4.18554000     -3.89381000
  O     -0.98317500      5.22771000     -4.24312000
  C     -3.36570000     -3.96410000     -3.42399000
  O     -4.46154000     -4.52041000     -3.82822000
  C     -0.05075960      3.55170000     -5.27769000
  O      0.46149300      4.19812000     -6.29862000
  C      0.72570700     -6.51668000      0.93152100
  O      0.95368000     -7.36245000      1.86721000
  C     -0.26426800     -6.51872000     -0.24705900
  O     -0.96566200     -7.57932000     -0.20269800
  C     -1.32141000      2.65862000     -5.62167000
  O     -1.49952000      2.84387000     -6.90053000
  C     -0.82932300     -2.16015000     -5.30396000
  O     -0.71827100     -3.19141000     -6.06447000
  C     -2.10553000     -5.53785000      2.16441000
  O     -2.62197000     -6.55645000      2.75977000
  C      4.01008000     -3.83076000      2.38637000
  O      4.63519000     -4.12078000      3.46999000
  C      2.00133000      4.79107000      2.80036000
  O      2.46251000      5.92542000      2.97187000
  C      1.52690000     -6.55959000     -0.50536400
  O      1.79711000     -7.75373000     -0.83662000
  C      3.92901000     -0.42529600      4.83293000
  O      4.41908000     -0.60634200      5.99380000
  C     -5.20622000      0.45705600      1.98040000
  O     -6.41598000      0.70164400      1.60391000
  C      3.64168000     -4.85489000      1.48713000
  O      3.85536000     -6.11008000      1.67596000
  C      1.26566000     -3.85536000      4.07291000
  O      2.21890000     -3.86661000      4.98653000
  C      1.31927000     -4.82592000      2.85589000
  O      1.63348000     -5.90961000      3.42852000
  C     -3.76746000     -1.86550000      4.47859000
  O     -4.50809000     -1.87909000      5.54068000
  C     -3.99220000     -1.63691000     -4.45280000
  O     -4.46196000     -1.64822000     -5.64775000
  C      2.50602000     -5.39753000     -1.25413000
  O      3.34886000     -6.13730000     -1.96594000
  C     -4.86649000     -1.79136000     -3.29266000
  O     -6.09293000     -2.04812000     -3.59626000
  C     -5.01377000      0.20328700      3.38843000
  O     -5.91488000      0.24830400      4.31075000
  C     -2.19832000     -4.85303000     -3.09055000
  O     -2.15515000     -5.92630000     -3.87515000
  C     -1.12921000      2.03312000      5.06929000
  O     -0.95625700      2.23401000      6.32636000
  C      5.74106000      0.77176000     -0.25591600
  O      7.00365000      0.66291900     -0.21564000
  C     -2.62770000     -5.34510000      0.78174700
  O     -3.03121000     -6.44945000      0.24311800
  C     -0.21081300     -4.02222000      4.49932000
  O     -0.18455800     -4.99367000      5.34953000
  C     -2.46566000      2.49256000     -4.61390000
  O     -3.35228000      3.33300000     -4.99991000
  C      0.04821510     -0.77920400     -5.61143000
  O      0.82513500     -0.73470800     -6.63440000
  C     -1.51480000     -5.32428000     -1.58408000
  O     -2.11658000     -6.50344000     -1.69825000
  C     -4.05491000     -4.57189000      1.01988000
  O     -4.64144000     -5.45604000      1.73118000
  C      3.71383000      1.74842000      4.58315000
  O      4.20187000      2.24995000      5.64739000
  C     -3.37303000     -3.17182000      3.97719000
  O     -3.70597000     -4.23621000      4.60490000
