110
Energy = -12082.74065543 au
 Ni     -0.01460890     -3.70745000     -2.46786000
 Ni     -1.37115000     -0.22395600     -1.28554000
 Ni      0.30085800     -4.35372000      0.10476100
 Ni     -0.45373100      4.57751000     -0.50863700
 Ni     -1.23111000      2.45146000     -2.09937000
 Ni     -3.14964000      0.58337200      0.61657100
 Ni     -0.94554800     -0.85435500      1.29327000
 Ni      0.01567760      3.47152000      2.23911000
 Ni      0.47315200     -1.15052000     -3.50444000
 Ni      3.16877000     -0.55557700     -0.73567100
 Ni      0.77937900     -1.71240000     -0.63763500
 Ni      2.79917000     -2.50496000     -2.51331000
 Ni      3.53567000      1.84276000     -1.62097000
 Ni      1.95811000     -0.19574100      3.72433000
 Ni      1.42909000      0.31364000      1.19088000
 Ni      2.75880000      0.37655500     -3.36432000
 Ni      1.28299000      3.36284000     -2.30062000
 Ni     -2.05255000     -2.36516000     -3.19961000
 Ni      3.49154000     -1.19378000      1.76310000
 Ni     -1.64983000     -2.88290000     -0.53744700
 Ni      4.06384000      1.55431000      0.89270700
 Ni      0.97399100      0.90059700     -1.38984000
 Ni     -1.99572000      0.28100600     -3.85995000
 Ni     -3.68202000     -1.31558000     -1.16562000
 Ni      2.30086000      2.36192000      3.21003000
 Ni     -0.26420400      1.12405000      3.32239000
 Ni      3.08129000     -3.19002000      0.04115310
 Ni     -1.18938000     -3.36724000      2.01491000
 Ni     -3.00688000      3.16332000     -0.36200900
 Ni      1.74935000      2.93151000      0.37737200
 Ni     -2.37564000      2.38443000      2.58425000
 Ni     -2.57963000     -0.04238680      3.38348000
 Ni      0.63984700      1.39278000     -4.15934000
 Ni     -0.73143100      1.70480000      0.49667500
 Ni     -3.35960000     -2.08979000      1.40738000
 Ni     -0.55474700     -1.37414000      3.87265000
 Ni     -3.84033000      1.25280000     -1.96896000
 Ni      1.31885000     -2.54373000      1.89561000
  C      5.56898000      0.85234400     -1.21328000
  O      6.44194000      0.45503500     -2.06366000
  C     -4.52994000      0.26318200     -3.82619000
  O     -5.59449000      0.21596300     -4.52762000
  C     -1.65605000     -5.53808000     -1.69798000
  O     -1.69477000     -6.64086000     -2.37714000
  C      1.34797000      0.95270900     -5.85478000
  O      1.47569000      1.26318000     -7.10152000
  C     -1.58351000      5.55414000     -1.65267000
  O     -2.17074000      6.68572000     -1.83096000
  C     -4.16799000     -2.24201000     -4.10472000
  O     -4.75276000     -2.58842000     -5.19251000
  C     -1.24273000     -5.66864000     -0.21652400
  O     -1.71036000     -6.74207000      0.32098300
  C     -0.63217300     -2.71546000     -4.92299000
  O     -1.07263000     -2.77977000     -6.11912000
  C      1.88801000      3.95288000     -4.38090000
  O      1.85304000      4.86007000     -5.30785000
  C     -1.23754000      0.18232500     -5.90960000
  O     -1.29617000     -0.31341200     -7.05905000
  C      3.67466000      1.18308000      4.54351000
  O      4.63299000      1.37573000      5.40085000
  C      2.71050000      4.54118000      2.76934000
  O      2.81152000      5.40218000      3.72383000
  C      2.89551000     -5.02168000     -1.40540000
  O      3.61569000     -6.05117000     -1.63338000
  C      2.00435000     -4.64869000      2.57331000
  O      1.78356000     -5.70821000      3.25520000
  C      3.83735000      1.97008000     -4.14660000
  O      4.86958000      1.87665000     -4.90822000
  C     -1.68865000      0.63942600      5.22798000
  O     -1.82469000      0.47633900      6.51436000
  C      5.07540000     -2.59843000     -0.97628200
  O      6.29509000     -2.62568000     -0.56801500
  C      2.66243000      4.84363000      1.19612000
  O      3.13922000      5.96860000      0.66929800
  C      0.96194800      2.21326000      5.00902000
  O      0.97295400      2.68309000      6.22690000
  C      4.74950000     -2.59382000     -2.42116000
  O      5.69154000     -2.75549000     -3.27884000
  C      3.34474000      3.45266000     -4.13320000
  O      4.22570000      4.37660000     -4.36108000
  C     -1.80869000      4.72691000     -2.92715000
  O     -1.42363000      5.04948000     -4.10689000
  C     -2.73428000     -4.38460000     -2.40254000
  O     -3.73126000     -5.06271000     -2.85701000
  C     -3.28377000      3.95480000     -2.95407000
  O     -3.68932000      3.88838000     -4.16619000
  C      3.68054000     -3.88394000     -4.29557000
  O      3.85432000     -4.22287000     -5.52991000
  C     -2.03190000      2.12510000      4.91455000
  O     -2.31873000      3.05459000      5.72160000
  C     -3.96216000     -4.19636000      0.56799300
  O     -4.87842000     -5.07410000      0.70699000
  C     -5.34583000      1.35739000     -0.32591800
  O     -6.72355000      1.57406000     -0.28101600
  C     -4.02089000      4.21233000     -1.64952000
  O     -4.81725000      5.20135000     -1.85670000
  C      1.21396000     -0.52140100     -5.57789000
  O      1.11500000     -1.25162000     -6.63734000
  C      0.21966500     -4.21705000     -4.48821000
  O      0.36463400     -5.32394000     -5.09150000
  C      5.85788000      1.01782000      0.21578400
  O      7.08065000      0.91401900      0.62887400
  C      3.89838000      3.85160000      1.73495000
  O      5.10174000      4.27448000      1.83576000
  C      1.15866000     -2.99538000     -4.92101000
  O      2.03918000     -2.92034000     -5.87160000
  C      3.34379000     -4.10998000      2.27302000
  O      4.36386000     -4.56720000      2.91823000
  C      1.29947000      5.75854000     -0.09454660
  O      1.23355000      7.12548000     -0.33537100
