110
Energy = -12582.28636403 au
 Ni      0.03879690     -3.94120000     -2.65981000
 Ni     -1.49987000     -0.26939500     -1.21599000
 Ni      0.42319500     -4.53257000      0.43668800
 Ni     -0.61554100      4.23230000     -0.54773000
 Ni     -1.20056000      2.21279000     -1.97204000
 Ni     -3.55095000      0.66380800      0.63778800
 Ni     -1.07307000     -0.85839100      1.28192000
 Ni      0.17142800      3.64635000      2.23768000
 Ni      0.40586500     -1.15380000     -3.12474000
 Ni      3.39872000     -0.49121700     -0.59572700
 Ni      0.70738400     -1.69641000     -0.65169700
 Ni      2.65309000     -2.84384000     -2.64185000
 Ni      3.39901000      2.16743000     -1.64516000
 Ni      2.16510000     -0.43182800      4.12136000
 Ni      1.45699000      0.27411600      1.23720000
 Ni      2.85581000     -0.05795740     -3.04920000
 Ni      1.38421000      3.45449000     -2.21089000
 Ni     -2.13607000     -2.15255000     -2.94877000
 Ni      3.59860000     -1.12364000      2.02730000
 Ni     -1.70483000     -2.92641000     -0.53543500
 Ni      3.90932000      1.33638000      1.34469000
 Ni      1.01714000      0.87786100     -1.30123000
 Ni     -1.74160000      0.25454300     -3.83262000
 Ni     -4.17790000     -1.24962000     -1.15095000
 Ni      2.29925000      2.13174000      3.33952000
 Ni     -0.14479800      1.04645000      3.21280000
 Ni      2.82992000     -2.96370000     -0.01309660
 Ni     -1.26830000     -3.41018000      1.99059000
 Ni     -3.12882000      3.11814000     -0.27594000
 Ni      1.72940000      2.90679000      0.51365700
 Ni     -2.58289000      2.19003000      2.35869000
 Ni     -2.98948000     -0.36892100      3.26547000
 Ni      0.61786000      1.34688000     -3.82422000
 Ni     -0.77364100      1.67186000      0.54433100
 Ni     -3.56974000     -1.99665000      1.49806000
 Ni     -0.64628500     -1.50137000      3.80033000
 Ni     -3.80231000      0.95605200     -1.98271000
 Ni      1.12492000     -2.30457000      1.90458000
  C     -4.44073000     -1.01805000     -3.17239000
  O     -5.51861000     -1.22854000     -3.97198000
  C      5.09753000     -1.39833000     -3.05577000
  O      6.03651000     -1.20852000     -3.92764000
  C      1.20675000     -1.87219000     -5.45362000
  O      1.72965000     -1.33451000     -6.50735000
  C     -5.81986000      2.08207000     -1.02979000
  O     -6.62036000      2.93931000     -1.55156000
  C     -4.97543000      2.46773000      0.27389900
  O     -5.88174000      2.94970000      1.05749000
  C     -5.84635000      0.54954400     -1.17337000
  O     -7.06892000      0.18020500     -1.28871000
  C      5.37927000     -0.73529500     -0.54998900
  O      6.41771000     -1.46974000     -0.39889200
  C     -1.67423000     -5.27423000      0.35203300
  O     -2.35762000     -6.20370000      0.92968800
  C     -5.39509000     -1.37743000      0.80018100
  O     -6.48978000     -2.04377000      0.63319800
  C     -1.42569000      5.27252000     -2.05699000
  O     -1.06497000      6.21319000     -2.85503000
  C      1.64882000      2.52121000      5.06366000
  O      2.13906000      3.35464000      5.91575000
  C      1.37663000     -5.38063000     -2.69223000
  O      1.10403000     -6.62046000     -2.92045000
  C      2.99790000      4.43696000     -0.62211200
  O      3.64423000      5.56614000     -0.42855100
  C      0.43848900     -3.86302000     -4.47922000
  O     -0.14406600     -4.54020000     -5.40630000
  C     -0.56351800     -0.22180900     -5.44225000
  O     -0.44032500      0.19401900     -6.65948000
  C      5.07155000      1.48200000      2.94296000
  O      6.33656000      1.26593000      3.07455000
  C      1.80840000     -3.20555000     -4.79099000
  O      2.85232000     -3.82444000     -5.26921000
  C      1.10408000     -5.13006000      2.09004000
  O      1.58926000     -6.24616000      2.55225000
  C      2.62477000      0.00090396      5.97805000
  O      3.62953000      0.16537000      6.74638000
  C     -2.77123000      4.73162000     -1.74704000
  O     -3.77627000      5.40684000     -2.19680000
  C     -3.21901000     -2.18456000      3.93068000
  O     -3.94364000     -2.73295000      4.93113000
  C      4.26318000     -1.06761000      4.05888000
  O      5.36725000     -0.81158400      4.74773000
  C      3.37651000      3.45601000     -3.51684000
  O      4.23786000      4.40963000     -3.70044000
  C     -0.40729700     -1.77357000     -5.53751000
  O     -1.27196000     -2.50653000     -6.12250000
  C     -4.71083000      0.76735400      2.57549000
  O     -5.48179000      1.58180000      3.22349000
  C      4.55402000     -2.73905000     -2.53755000
  O      5.45031000     -3.65488000     -2.40526000
  C      2.73148000     -4.82810000     -2.61725000
  O      3.81732000     -5.52141000     -2.70391000
  C      5.40928000     -0.16171100     -1.97114000
  O      6.07190000      0.86807300     -2.36086000
  C      1.72871000      4.77815000      2.35982000
  O      1.98458000      6.03609000      2.61313000
  C     -1.84407000     -4.68606000     -2.23213000
  O     -2.72448000     -5.27384000     -2.97581000
  C     -5.70742000     -0.01508760      1.57343000
  O     -6.88951000      0.46979400      1.49041000
  C      0.51688800      1.61329000      5.56512000
  O     -0.34077000      1.99342000      6.46032000
  C     -1.52676000     -5.75563000     -1.12168000
  O     -1.36820000     -6.98647000     -1.41961000
  C      1.10950000      0.06553850      6.06075000
  O      0.40240500     -0.60253000      6.93532000
  C      2.89912000      2.74439000     -4.71339000
  O      3.14503000      2.69920000     -5.95646000
  C      4.18710000      1.89048000      4.04497000
  O      4.55065000      2.03628000      5.27298000
