110
Energy = -10178.04643210 au
 Ni      0.08273060     -3.46103000     -2.25420000
 Ni     -1.36651000     -0.22763200     -1.15974000
 Ni      0.49410900     -4.15634000      0.22911400
 Ni     -0.49296600      4.17401000     -0.24157700
 Ni     -1.14507000      2.25180000     -1.91305000
 Ni     -3.02336000      0.49718000      0.65421700
 Ni     -0.94531800     -0.86148500      1.28589000
 Ni     -0.07002210      3.46456000      2.23132000
 Ni      0.29204700     -0.96007200     -2.97653000
 Ni      3.02171000     -0.49278300     -0.65328200
 Ni      0.71410300     -1.60822000     -0.53175800
 Ni      2.40571000     -2.32801000     -2.40209000
 Ni      3.28890000      2.00209000     -1.43408000
 Ni      1.83341000     -0.42002500      3.66000000
 Ni      1.36744000      0.22847800      1.16032000
 Ni      2.63732000      0.17200400     -3.15369000
 Ni      1.18944000      3.38095000     -2.04319000
 Ni     -2.02908000     -2.06730000     -2.90417000
 Ni      3.49960000     -1.13375000      1.82655000
 Ni     -1.58444000     -2.68641000     -0.40759600
 Ni      3.71908000      1.34475000      1.05773000
 Ni      0.94632300      0.86238700     -1.28532000
 Ni     -1.82008000      0.40735800     -3.64783000
 Ni     -3.71139000     -1.33862000     -1.05453000
 Ni      2.05036000      2.08228000      2.88589000
 Ni     -0.29170400      0.95395000      2.97236000
 Ni      2.80395000     -2.99657000      0.10018200
 Ni     -1.17826000     -3.36577000      2.04982000
 Ni     -2.82440000      3.01481000     -0.09860210
 Ni      1.59746000      2.70721000      0.40971200
 Ni     -2.41503000      2.32631000      2.37841000
 Ni     -2.63673000     -0.16159400      3.14184000
 Ni      0.53514600      1.51854000     -3.77245000
 Ni     -0.71431300      1.60952000      0.53100800
 Ni     -3.27829000     -1.98539000      1.42418000
 Ni     -0.52634200     -1.52730000      3.77901000
 Ni     -3.48689000      1.15181000     -1.81635000
 Ni      1.14462000     -2.24613000      1.91809000
  C      2.47694000      4.72899000      2.79259000
  O      3.08658000      5.92312000      3.01136000
  C     -2.84144000     -5.22530000      1.61697000
  O     -3.49669000     -6.32693000      1.48699000
  C      5.90368000     -1.41657000      1.22697000
  O      7.14751000     -1.62750000      0.97646400
  C     -3.35338000      4.64550000      2.72308000
  O     -3.89368000      5.74111000      3.12978000
  C      1.44325000      0.23228300     -5.88381000
  O      1.53365000     -0.15221700     -7.11191000
  C      1.08589000      6.08899000      0.17658900
  O      1.71804000      7.18485000      0.35694300
  C     -2.69922000     -1.53303000     -5.71414000
  O     -2.71251000     -1.90533000     -6.99091000
  C     -1.56195000      5.09067000     -2.53440000
  O     -2.04180000      6.00249000     -3.35799000
  C      2.38572000     -3.35959000     -4.68465000
  O      2.64512000     -3.69888000     -5.86892000
  C     -1.34346000      0.01569380     -6.09305000
  O     -1.19978000     -0.33719100     -7.31445000
  C     -3.85659000      5.23277000      0.41995800
  O     -4.39226000      6.33691000      0.81208800
  C      2.99320000      4.76236000      0.84493500
  O      3.64753000      5.91303000      1.00709000
  C      5.06608000     -0.13125400      3.58741000
  O      6.17163000     -0.03525870      4.34118000
  C     -3.76887000      2.59897000     -3.96973000
  O     -4.33860000      3.44382000     -4.86685000
  C     -3.21127000     -1.78765000      5.12331000
  O     -3.89035000     -2.39505000      6.03590000
  C      3.09087000     -2.36156000      4.66259000
  O      3.66713000     -3.23081000      5.49535000
  C      2.32106000     -3.97697000      3.31277000
  O      2.83885000     -4.86816000      4.15862000
  C     -5.08302000      2.89026000      1.42511000
  O     -6.32737000      3.11673000      1.68007000
  C      1.27544000     -3.17029000      4.84596000
  O      1.62026000     -4.07673000      5.73876000
  C     -3.16743000      5.37603000     -1.27489000
  O     -3.64200000      6.35853000     -1.97792000
  C      1.71252000      2.69390000      5.28277000
  O      1.61259000      3.09324000      6.50154000
  C     -0.62950700      6.49309000     -1.55278000
  O     -1.06007000      7.47245000     -2.27878000
  C      3.89578000      0.63713400      4.77342000
  O      4.84227000      0.87252800      5.76633000
  C     -3.81792000      3.93374000     -2.43980000
  O     -4.36715000      4.83862000     -3.25672000
  C      4.30123000      2.35166000     -3.94801000
  O      5.03406000      2.98145000     -4.78667000
  C      0.05078810     -0.20190600      6.01752000
  O     -0.07558170      0.16808900      7.24718000
  C      2.84775000      1.94424000     -5.27807000
  O      3.45427000      2.54918000     -6.23500000
  C      2.56419000     -5.13334000      1.83705000
  O      3.09414000     -6.14876000      2.52465000
  C      3.58274000      3.86043000      4.11292000
  O      4.30170000      4.89207000      4.38706000
  C     -2.02356000      3.66794000     -3.83186000
  O     -2.49850000      4.54881000     -4.72634000
  C      3.72736000      4.57231000     -0.96426300
  O      4.48799000      5.66688000     -0.90193900
  C     -1.38319000     -3.30496000      5.44546000
  O     -2.05829000     -3.90348000      6.36467000
  C      0.50816900     -3.71283000     -4.70468000
  O      0.58790100     -4.22759000     -5.94836000
  C     -1.16442000     -2.67454000     -5.20170000
  O     -1.05227000     -3.07473000     -6.47577000
  C      4.60682000      3.62746000      1.76809000
  O      5.30680000      4.68991000      1.94952000
  C      2.02183000      5.75620000     -1.73187000
  O      2.69166000      6.82322000     -1.65830000
