14
Energy =    -51.72820844 au
 Co     -0.15737982     -1.04330190     -2.09359495
 Co     -1.55564301     -0.51818883      0.26150864
 Co      0.11465274     -0.25445491      2.15942088
 Co      0.32278480      0.97166941     -0.75532559
 Co      2.34616422     -0.23753048     -1.63568597
 Co      2.35769095      0.40123354      0.94939417
 Te      2.50580693      2.01452451     -0.80958859
 Te     -1.76088533      0.72666725     -1.90453520
 Te     -2.11950705      0.76320615      2.36966048
 Te      0.88389082     -1.33569124      0.08163733
 Te     -3.68072754      0.76491440      0.06231261
 Te      0.61156008      2.02044863      1.44818613
 Te     -1.65741563     -1.89331741      2.31661873
 Te      1.78900783     -2.38017911     -2.45000867
