14
Energy =    -51.76631614 au
 Co      0.50648016     -0.46562695      1.49285919
 Co      0.83403518     -0.99203495     -1.23134767
 Co      2.05670110      1.00170632     -0.02296185
 Co     -1.79881262     -0.78177451      0.32975812
 Co     -0.72734826      1.08606422     -1.09642019
 Co      0.90008574      2.35922273      2.03994778
 Te     -2.79003178     -0.24044668     -1.87630467
 Te     -0.15221350     -2.54208387      0.35199491
 Te     -0.39716559     -0.20320182     -3.13237703
 Te     -2.90886507     -2.67738523     -0.64264706
 Te      2.55736065     -1.37427654      0.40499121
 Te      0.60101742      2.89807582     -0.30075173
 Te     -1.19394664      1.32048422      1.31816425
 Te      2.51270321      0.61127725      2.36509473
