14
Energy =    -51.81441716 au
 Co      0.12176841     -1.38251170      1.00387252
 Co     -1.26110879      0.70344016      1.52733216
 Co      0.84307844     -0.34821106     -2.06111425
 Co      2.54274076     -0.45651172      0.13804435
 Co     -3.38540201     -0.08035102      0.34569205
 Co     -0.08621527      1.73989764     -0.41981586
 Te      1.38386664     -2.39048006     -0.83301610
 Te     -1.23828669     -0.44692423     -0.78563744
 Te      2.21183996      1.56991963     -1.21004044
 Te      0.06528083      1.80547656     -2.86959762
 Te     -2.45479128      2.11295380     -0.01431805
 Te     -2.13466771     -1.49787372      1.86102763
 Te      1.13290716      0.90268184      1.55293924
 Te      2.25898955     -2.23150613      1.76463182
