14
Energy =    -51.72895132 au
 Co      2.16138325     -0.09792712     -2.17586916
 Co     -0.59303149      0.55192765      0.33905970
 Co      1.08512624      2.06692491     -1.27779488
 Co      1.66171800     -2.00491354      0.00978916
 Co     -0.69439856     -1.76717648     -0.96398078
 Co     -0.86506945     -0.26748376      3.19003430
 Te     -2.68529792     -0.45183613     -0.65404149
 Te     -0.24677371     -1.71350464      1.40361178
 Te     -2.63584692      0.60961673      1.85138304
 Te      0.41114926      1.61085243      2.37120195
 Te      1.19897433     -2.30157634     -2.34526449
 Te     -0.48694430      3.07044378      0.23423214
 Te     -0.26839595      0.30228493     -2.18948817
 Te      1.95740721      0.39236756      0.20712693
