14
Energy =    -51.75548433 au
 Co      1.50742260      0.00481413      1.89512808
 Co     -1.11329857      1.51646897      0.08341726
 Co     -0.20085399     -2.49180305     -0.89941794
 Co      1.00537214      2.41648356      1.12651529
 Co     -0.62919769     -1.29460659      2.46725768
 Co      0.87372236     -0.13776033     -0.50221969
 Te      1.16727162     -2.20044615      1.05898903
 Te     -1.48741531     -0.84833693      0.28734199
 Te     -1.79981153      1.56654782     -2.24690780
 Te     -0.20148409     -0.66411071     -2.65489967
 Te     -2.31273492     -2.31634768     -2.09260766
 Te      2.89721999      1.11021880      0.29556712
 Te      0.83176224      2.19007347     -1.29084371
 Te     -0.53797485      1.14880474      2.47268005
