14
Energy =    -51.73492474 au
 Co     -0.67584666      2.09060044     -2.36150724
 Co      0.16833503     -2.15825838      1.98430357
 Co      1.20800729     -1.05790804     -0.14853915
 Co      0.60996593      1.69217990     -0.08660096
 Co     -0.53924317     -2.36502455     -1.05693805
 Co     -1.48088173     -0.16484061     -0.21640748
 Te      1.77654174      2.10441557     -2.17027362
 Te      2.82124651      0.74931008      0.19942579
 Te      0.07073245     -0.20653245     -2.08587665
 Te     -1.95831181     -2.26313918      0.88779518
 Te      2.50199221     -1.53251573      1.83343375
 Te     -1.73851398      2.29544249     -0.19766933
 Te      0.03025451      0.22318976      1.71841862
 Te     -2.79427832      0.59308067      1.70043558
