14
Energy =    -51.78295724 au
 Co     -0.39206906     -0.29585545      1.97538662
 Co      1.27412724      1.88470802      1.22762097
 Co      3.07630487      0.47660553     -0.47725843
 Co      0.12550142     -2.07472554     -2.06941502
 Co      0.57449477      0.01229652     -0.49293482
 Co     -1.96460019     -0.20629209     -0.83152119
 Te     -0.43466980      0.24584673     -2.68801755
 Te      1.98923783     -0.54058173      1.45101201
 Te      1.47173347      2.14409788     -1.17659535
 Te     -2.24259438     -1.85034801     -2.59233363
 Te     -0.65618388     -1.99442221      0.22247905
 Te     -2.76433849     -0.43588347      1.46722675
 Te     -1.06423639      1.60035213      0.51403106
 Te      1.00729259      1.03420170      3.47031952
