14
Energy =    -51.71141793 au
 Co     -2.71282822      0.06253784     -0.26722091
 Co      0.93168685     -1.91320709     -0.88041371
 Co      0.08776632      2.97138239      1.32963703
 Co      1.55139277      0.68678350     -0.03930066
 Co     -0.22011682      2.44793729     -1.23509319
 Co     -0.59356217      0.36831425      1.35493658
 Te     -2.14493774     -1.51287781      1.45694210
 Te      1.15644737     -1.36627837      1.48977319
 Te     -0.42800302     -3.41445291      0.49625980
 Te     -0.49259047      0.07282543     -1.25327833
 Te      1.49617880      1.35912167      2.29057142
 Te     -1.96786737      2.24556637      0.42293288
 Te      2.65027969     -0.41099126     -1.88025243
 Te      0.68615400     -1.59666131     -3.28549377
