14
Energy =    -51.64699047 au
 Co      0.97861882     -0.30500245     -0.53918807
 Co      2.92673861      0.77919079      0.43905885
 Co     -1.21223440     -0.09056381      0.76477281
 Co     -2.67560045     -1.54336535     -0.62858067
 Co     -2.95482705      1.40925064     -0.79873229
 Co     -4.42231148     -2.20664736      1.42464454
 Te      4.64810797     -0.90993337     -0.32719902
 Te     -1.13078086      0.05691369     -1.74515871
 Te      2.81838548      0.26278909     -1.94350258
 Te      0.82079677      0.96116278      1.56199882
 Te     -0.42881751     -2.23638586     -0.20021606
 Te     -0.90592580      2.43185199      0.04671533
 Te      5.16796620      1.39832087      0.94437071
 Te     -3.63011631     -0.00758164      1.00101633
