14
Energy =    -51.70781833 au
 Co     -1.79340466     -0.65905192      2.15969879
 Co     -2.14764734     -2.21984489     -2.20657223
 Co      1.41580634      1.60780341      0.51509802
 Co      0.47584831     -0.81716417      0.91306380
 Co     -2.85021618      0.14871906     -0.40368632
 Co     -0.58840066      0.01028316     -1.32965454
 Te      2.11944684      0.24664665      2.49402481
 Te      1.81829008     -0.20015805     -1.09956805
 Te      3.51640860      2.30173584      1.44476910
 Te      2.62132514     -1.97771135      1.02590153
 Te     -0.98085207      1.18819550      0.80622964
 Te     -1.53999632     -1.89218961      0.07813227
 Te     -2.51123911      0.05007423     -2.77000569
 Te      0.44463102      2.21266215     -1.62743117
