62
Energy =    -96.27358724 au
  N      3.74501057      6.86331724      3.09659171
  C      3.69709080      5.58508421      2.74583969
  N      4.58453423      5.36332169      1.78512622
  C      5.24685524      6.52543136      1.53536552
  C      4.72355366      7.46876011      2.36202039
  C      2.92823088      7.46190642      4.12186417
  C      3.63233993      7.39825101      5.47210598
  C      4.84118992      4.11289435      1.13290931
  H      2.97803156      4.88955507      3.12970817
  H      6.03475826      6.56654670      0.80898078
  H      4.96610761      8.50473828      2.48002477
  H      2.71910094      8.49695524      3.83707473
  H      1.98996806      6.90005688      4.14451894
  H      2.95305605      7.69845366      6.26478466
  H      4.50356321      8.05095395      5.48471538
  H      3.96560310      6.38009242      5.65708289
  H      4.91630630      3.32535320      1.88101954
  H      5.78401374      4.19766758      0.58870289
  H      4.03865004      3.88147163      0.43205477
  N      8.51644229      3.45661503      2.58794554
  C      8.76604612      3.06880530      1.33914400
  N      7.93685943      2.07844338      1.02341680
  C      7.11292268      1.84980181      2.08577293
  C      7.47508289      2.71272799      3.06795672
  C      9.11237298      4.57156182      3.27929650
  C      8.18618487      5.77875175      3.19542819
  C      7.80112328      1.45823936     -0.26168541
  H      9.54321909      3.45469542      0.71374911
  H      6.35990263      1.08033715      2.03799379
  H      7.02875389      2.91328219      4.02095298
  H      9.27343008      4.28324432      4.32220492
  H     10.07478810      4.79187944      2.81019617
  H      8.63624374      6.63696498      3.68615804
  H      7.23762052      5.54863427      3.67480948
  H      8.00642873      6.01188015      2.14975621
  H      7.54094853      2.22559986     -0.99345465
  H      7.00648831      0.71650358     -0.19999208
  H      8.73388981      0.97944571     -0.56241306
  N      3.57960750      1.25421638      4.27230577
  C      3.20921934      1.27526285      2.99562772
  N      2.24016051      2.17022250      2.84300591
  C      1.98640072      2.74279493      4.05256324
  C      2.83257903      2.16866077      4.95012182
  C      4.59129942      0.36952753      4.80421612
  C      5.39845937      1.03536175      5.90947204
  C      1.53497432      2.48003775      1.63202724
  H      3.67326669      0.66246683      2.22923295
  H      1.26820347      3.53743879      4.14590877
  H      2.96841848      2.37093080      5.99052094
  H      4.09727293     -0.53538982      5.17875694
  H      5.22635053      0.07806442      3.96418966
  H      6.35480918      0.53431853      6.02461955
  H      4.87302165      0.99848474      6.86153784
  H      5.57201566      2.07877934      5.65396328
  H      2.18760952      2.33269612      0.77507504
  H      1.18795144      3.51790852      1.69271050
  H      0.66402092      1.82988510      1.52959239
 Cl      5.14212033     -0.68493393      1.39790131
 Cl     16.23213283     22.97343426     21.71047497
 Cl      0.55455491      5.42684456      2.77070619
 Cl      7.79132886      4.99724801     -0.32535232
 Cl      5.17021105      4.28598153      4.74589945
