62
Energy =    -96.25895587 au
  N      8.99915289      3.50250819      1.11166897
  C      9.48924800      3.90576080     -0.06138848
  N      8.62677631      4.74879085     -0.62449937
  C      7.60286053      4.95650254      0.25003507
  C      7.83529725      4.18462727      1.34165907
  C      9.63758173      2.62025915      2.05632166
  C     10.36812128      3.43046265      3.12230089
  C      8.82699873      5.36710620     -1.89902818
  H     10.32772559      3.47133236     -0.56297717
  H      6.79780810      5.62684232      0.02879654
  H      7.26696729      4.03468153      2.23671113
  H      8.86607913      1.98139994      2.49996202
  H     10.34915770      2.00275228      1.50446039
  H     10.97723112      2.77604991      3.73945638
  H      9.65733801      3.95272613      3.75820723
  H     11.00500747      4.16549282      2.63405293
  H      9.81950841      5.82075598     -1.90820083
  H      8.06686237      6.12796977     -2.06130940
  H      8.75910124      4.60296953     -2.67606186
  N      5.09813475      3.18409653      4.99900764
  C      4.84237835      4.35000303      5.59637269
  N      4.69966003      5.29192367      4.65455874
  C      4.74864492      4.67473171      3.43127337
  C      4.99834967      3.36070829      3.64748832
  C      5.30288585      1.90691020      5.63536404
  C      3.96611094      1.21289269      5.87620493
  C      4.27421445      6.63256621      4.92828859
  H      4.97477115      4.54544793      6.63961026
  H      4.60898406      5.21879537      2.52006198
  H      5.17960991      2.53919325      2.98044748
  H      5.93352996      1.31077762      4.96946744
  H      5.81984045      2.07463345      6.58328686
  H      4.10599047      0.33742512      6.50397349
  H      3.53214813      0.90207158      4.92958287
  H      3.28060558      1.90262722      6.36315534
  H      3.34558965      6.57278209      5.50446688
  H      4.10142350      7.16099090      3.99400395
  H      5.02638721      7.16143307      5.51538972
  N      5.42234605      1.27213450     -0.29189907
  C      6.72470862      1.13574298     -0.06717328
  N      7.08495850     -0.11554146     -0.32022769
  C      5.98313560     -0.79961703     -0.73733808
  C      4.94031270      0.06857624     -0.72465171
  C      4.69336681      2.51035560     -0.20360755
  C      4.68131090      3.21080770     -1.55929884
  C      8.42772954     -0.59454959     -0.19277164
  H      7.37123576      1.90222853      0.29631155
  H      6.02189957     -1.83597776     -1.00381355
  H      3.90963552     -0.07583050     -0.97502398
  H      3.67872970      2.29536533      0.14379461
  H      5.19775848      3.13394765      0.53708674
  H      4.30239395      4.22378892     -1.45918139
  H      4.05831317      2.67005747     -2.26789615
  H      5.69715862      3.23883379     -1.94978683
  H      8.47833184     -1.63886642     -0.49234841
  H      8.74559469     -0.48796135      0.84598596
  H      9.07015064      0.01188101     -0.83495246
 Cl      6.73580757      0.75774781      2.64464694
 Cl      7.91622747      2.12618910     -2.25556933
 Cl     11.24301327      5.64090453      0.54584435
 Cl     -0.76720052     28.95227747     19.13319863
 Cl      2.46145750      4.34597859      6.38375190
