62
Energy =    -96.26957505 au
  N      6.25735193      5.50538082      8.42819949
  C      5.07135807      4.90143369      8.38186952
  N      4.51825985      4.93654859      9.58926515
  C      5.34578918      5.64294696     10.41394336
  C      6.43406306      6.00110760      9.68605099
  C      7.16659407      5.69733843      7.32733132
  C      7.00805052      7.09729077      6.74505958
  C      3.22814648      4.39238264      9.88947821
  H      4.68250131      4.33203305      7.56533487
  H      5.10183851      5.83372374     11.43886578
  H      7.32745386      6.51758866      9.96632274
  H      8.17839082      5.52453725      7.70666099
  H      6.93173077      4.95068124      6.56590880
  H      7.58021953      7.18822480      5.82605390
  H      7.35270322      7.84875517      7.45099054
  H      5.95612930      7.27657984      6.53279282
  H      2.47564314      4.93581768      9.31512436
  H      3.02765540      4.48371375     10.95473013
  H      3.21764780      3.34282742      9.58634447
  N      7.96786704      1.40931179      8.13485335
  C      7.35774198      2.23031028      8.98227741
  N      7.36016891      1.69015543     10.19371976
  C      8.00371680      0.49138969     10.12431993
  C      8.38968411      0.31475092      8.83521379
  C      8.21127481      1.69275098      6.74453717
  C      9.53375063      2.43624601      6.58167503
  C      6.77991760      2.31880250     11.34064103
  H      6.91737974      3.16752942      8.72891698
  H      8.13510283     -0.13710236     10.98116112
  H      8.91418483     -0.49322943      8.36840829
  H      8.21322893      0.74977853      6.19109029
  H      7.38093259      2.30505012      6.38727515
  H      9.61531722      2.85248274      5.58201457
  H     10.37384689      1.76799834      6.75585457
  H      9.58193828      3.24111351      7.31283793
  H      6.95755783      1.71111987     12.22502899
  H      5.70755137      2.43399591     11.17208824
  H      7.23939869      3.30260388     11.45950331
  N      1.64911419      1.70910667      6.87727670
  C      2.68969007      1.94774148      6.07895050
  N      2.83913366      3.26537349      5.95102525
  C      1.81316774      3.88252678      6.60968924
  C      1.07426285      2.91147861      7.19612105
  C      1.18009842      0.41015154      7.27426532
  C      1.59847487      0.09835369      8.70811725
  C      3.78605482      3.92869849      5.10337861
  H      3.41045775      1.21653444      5.78014272
  H      1.74183020      4.95138035      6.63835401
  H      0.19329564      2.97244547      7.80109442
  H      0.09089365      0.38549210      7.16984564
  H      1.60791760     -0.31334380      6.57845685
  H      1.38279685     -0.93917292      8.94901901
  H      1.06993294      0.74063203      9.40983430
  H      2.66545840      0.27682692      8.81907391
  H      4.76121940      3.45012687      5.19644433
  H      3.84461695      4.97664772      5.40135065
  H      3.45732915      3.84912727      4.06455485
 Cl      1.67404545      1.31549219      3.87324870
 Cl      4.73580854      1.71505777      8.49190699
 Cl     35.25957399      1.36869577    -16.88656863
 Cl      9.13508572      4.16800217      9.63792902
 Cl      3.53417195      6.71322885      7.27356587
