62
Energy =    -96.27566801 au
  N      2.01275546      1.27225056      6.66927914
  C      1.03993878      1.84028836      7.37170019
  N      1.43610467      3.05464649      7.73901843
  C      2.69435387      3.26261026      7.25623601
  C      3.05788243      2.14312635      6.57612929
  C      1.93820229     -0.04043301      6.07668934
  C      2.06072753      0.05110921      4.56075187
  C      0.69050810      4.01604682      8.49959861
  H      0.11146526      1.33001322      7.62478780
  H      3.19075104      4.19811889      7.41786498
  H      3.94823103      1.91081171      6.01571815
  H      2.75733931     -0.64764397      6.47242676
  H      0.98246201     -0.47460548      6.38443007
  H      1.95611788     -0.93854683      4.12487833
  H      3.03480843      0.45245015      4.28785348
  H      1.28355314      0.69536139      4.15620356
  H      1.04055564      5.01415474      8.22516840
  H      0.85191984      3.86471817      9.56877613
  H     -0.37101946      3.91421062      8.28436601
  N      4.41513647      4.05821161      2.70490409
  C      5.44171145      4.00295459      3.54743877
  N      5.09280674      4.56189055      4.70044328
  C      3.79120961      4.95347102      4.60751580
  C      3.36646194      4.63460009      3.35627701
  C      4.35982520      3.52524972      1.36707331
  C      3.72320502      2.13933568      1.38655336
  C      5.93905960      4.67877392      5.85286880
  H      6.41394903      3.61380671      3.32688371
  H      3.27808145      5.43788340      5.41839473
  H      2.43037182      4.80260467      2.86671991
  H      3.78238357      4.22470314      0.75119407
  H      5.38090124      3.46214977      0.98482882
  H      3.79503160      1.68043608      0.40440587
  H      2.67541830      2.20680717      1.66720432
  H      4.23775214      1.51653369      2.11541770
  H      5.37813447      5.14830997      6.65631985
  H      6.82082642      5.28429708      5.61673620
  H      6.26155596      3.68237133      6.15608802
  N      4.87104244      7.98258294      4.66324622
  C      5.73518951      7.63876001      3.71703622
  N      5.07500470      7.46739215      2.57582420
  C      3.75484696      7.71902936      2.79595509
  C      3.62715250      8.04492230      4.11156813
  C      5.21636130      8.25370197      6.03574306
  C      5.24489779      9.75584015      6.29568373
  C      5.64245532      7.08180691      1.31541328
  H      6.79357575      7.45626534      3.90755592
  H      3.03778285      7.58817012      2.00671499
  H      2.76071774      8.25986725      4.70166665
  H      4.46852647      7.77177167      6.67534672
  H      6.20289662      7.82207583      6.21407050
  H      5.49444445      9.93664308      7.33706379
  H      4.27239136     10.19926141      6.09086235
  H      5.99418614     10.23587617      5.66848847
  H      6.08889168      7.94655508      0.82150868
  H      4.83545570      6.68717756      0.68623983
  H      6.41389376      6.33124828      1.47428843
 Cl      5.44348558      1.35494943      4.40120057
 Cl     -1.15149596     -0.33672601      7.94037462
 Cl      2.76735841      6.23202116     -0.01776919
 Cl      2.57839907      6.62995033      7.33942988
 Cl      8.50247870      6.87140261      4.92402173
