62
Energy =    -96.28518621 au
  N      4.23090197      5.26130290      7.74957735
  C      4.41850243      4.40155053      6.74822000
  N      5.27428052      4.92494901      5.88021831
  C      5.64258882      6.15196915      6.33073698
  C      4.98686378      6.36801031      7.50409247
  C      3.36607352      5.04710831      8.88960217
  C      3.91569197      5.68590120     10.15572413
  C      5.72511487      4.31112738      4.66588918
  H      3.97679900      3.42497783      6.62610247
  H      6.30400999      6.78318834      5.77638298
  H      5.02075200      7.21867522      8.16326134
  H      2.36716965      5.44735308      8.67469224
  H      3.27696802      3.96594948      9.02608487
  H      3.22487759      5.49708778     10.97242272
  H      4.02455067      6.76131275     10.04560022
  H      4.88597234      5.26411570     10.41154170
  H      6.80065427      4.13713130      4.71144368
  H      5.51061579      4.98855211      3.83789454
  H      5.20560230      3.36146370      4.54145360
  N      2.09789581      8.79612180      8.05998027
  C      3.06717266      9.62945606      7.69043973
  N      3.56674178      9.21786908      6.52728518
  C      2.91489216      8.07560885      6.15854831
  C      1.99068179      7.81532340      7.11681297
  C      1.36359265      8.83776211      9.29842234
  C      0.35791882      9.98308609      9.31425058
  C      4.70236663      9.76922655      5.84673377
  H      3.35083543     10.52317383      8.20394391
  H      3.18618933      7.56340057      5.25386838
  H      1.27743717      7.02129734      7.23612142
  H      0.84536502      7.88025976      9.39587758
  H      2.08845992      8.94768192     10.10963124
  H     -0.18655726      9.97494249     10.25414092
  H     -0.35581334      9.86571613      8.50173056
  H      0.85812354     10.94411423      9.20952890
  H      4.51290978     10.80122955      5.54816739
  H      4.89768093      9.16027908      4.96423021
  H      5.56379905      9.74171912      6.51549525
  N      0.58769747      3.83913299      5.64637819
  C      1.49874960      3.49958288      4.73445992
  N      1.76450234      4.55830296      3.97712555
  C      1.00005627      5.59904043      4.40949018
  C      0.25696491      5.14405036      5.45517733
  C      0.00111643      2.96346008      6.63439979
  C      1.05522318      2.27218843      7.48790274
  C      2.68000926      4.59031488      2.87508636
  H      2.05291232      2.56876150      4.69937011
  H      1.05731666      6.56772153      3.95946333
  H     -0.42344748      5.64690945      6.11304606
  H     -0.62710094      3.58663218      7.27431447
  H     -0.61768269      2.22254701      6.11634017
  H      0.58448138      1.49338796      8.08174325
  H      1.49452439      2.99996731      8.16220575
  H      1.83634114      1.82475319      6.87850798
  H      3.32651816      5.47259687      2.96179866
  H      2.13378285      4.65169006      1.93251169
  H      3.28124793      3.68537563      2.88988447
 Cl     -0.11291308      5.72369352      8.57739075
 Cl      3.81371874      1.48778584      5.27272158
 Cl     28.13101438      0.71319085    -25.42777972
 Cl      4.96814926      9.04630907      9.46316309
 Cl      4.55883745      7.25961577      3.38452872
