62
Energy =    -96.24973686 au
  N      6.42717902      5.30890034      5.50124588
  C      5.47109587      4.67354835      6.16767392
  N      4.46684472      5.51223072      6.40005650
  C      4.80087271      6.72969308      5.88897780
  C      6.02622940      6.59858347      5.31781855
  C      7.66443491      4.69424589      5.09302645
  C      8.81938766      5.68241615      5.06552302
  C      3.27710057      5.24653490      7.15456011
  H      5.48145671      3.63421468      6.41734674
  H      4.11405441      7.55236775      5.95851383
  H      6.62235398      7.31722550      4.79706931
  H      7.87068731      3.91026758      5.82563853
  H      7.50844640      4.25212568      4.10291961
  H      9.74666930      5.14240600      4.89035780
  H      8.88918148      6.19207717      6.02377368
  H      8.69356857      6.41559537      4.27253424
  H      2.56641249      6.05283429      6.96334923
  H      3.52190607      5.20856049      8.21769651
  H      2.84726778      4.29143309      6.85550115
  N      8.53514821      3.96118521      0.95103983
  C      7.55755000      3.08468598      0.74552790
  N      7.61587196      2.13824920      1.67514817
  C      8.69707732      2.38452411      2.46582281
  C      9.27684191      3.52303300      2.00910582
  C      8.80582612      5.11211346      0.13061734
  C      7.54263543      5.94334809     -0.07376234
  C      6.66219510      1.07947312      1.80662203
  H      6.77382557      3.18537135      0.02662319
  H      8.96210514      1.75016413      3.28668894
  H     10.14184695      4.05032119      2.35448199
  H      9.57724063      5.69913810      0.63610987
  H      9.19779156      4.75564258     -0.82904194
  H      7.79787202      6.96061562     -0.35911838
  H      6.96270876      5.96019993      0.84672999
  H      6.92089881      5.51019588     -0.85166443
  H      6.97337271      0.40348553      2.60041481
  H      6.59773009      0.53932628      0.86109464
  H      5.69022785      1.51414936      2.05103792
  N      2.10149970      7.12291122      2.44481976
  C      2.60039051      8.17065691      3.09510116
  N      1.92247787      9.25969755      2.75181451
  C      0.94229332      8.90447729      1.87854811
  C      1.05240650      7.56337871      1.68658732
  C      2.51040318      5.74960174      2.60789333
  C      1.72434286      5.10130739      3.74201320
  C      2.10098418     10.58599917      3.26633094
  H      3.43859561      8.13079333      3.75897311
  H      0.30290806      9.66002377      1.44949522
  H      0.47703141      6.89707418      1.07729618
  H      2.34165908      5.22506284      1.66379713
  H      3.58001930      5.71466951      2.82749289
  H      2.18576120      4.15668214      4.01286361
  H      0.69084325      4.92487036      3.44890882
  H      1.73049754      5.76851392      4.60116100
  H      1.76229586     10.61310812      4.30332856
  H      1.50189263     11.26618386      2.65280370
  H      3.15265681     10.86849791      3.22852157
 Cl      5.63408981      4.37587858      2.49677702
 Cl      6.83821750      4.37554493      8.46004528
 Cl      0.12176306     11.89491026      0.85502346
 Cl      8.74215002      1.78435027     -1.16677489
 Cl      1.71856069      7.98990624      5.74875887
