62
Energy =    -96.27628906 au
  N      3.47967460      6.11822960      3.57027009
  C      2.35708259      5.86650793      4.24045713
  N      1.39122748      6.65762724      3.78770607
  C      1.90275483      7.43275842      2.79482991
  C      3.21536971      7.09827461      2.66024860
  C      4.73899472      5.43947439      3.79797422
  C      5.33623620      4.89278365      2.51265553
  C      0.02076749      6.64483721      4.20306457
  H      2.26897635      5.10470041      5.00767971
  H      1.28700210      8.10414953      2.23356981
  H      3.95889367      7.47512211      1.98882935
  H      5.44160385      6.13742376      4.26195863
  H      4.54217395      4.63165650      4.50505330
  H      6.22112977      4.30958628      2.76919933
  H      5.63452776      5.69240528      1.84004682
  H      4.62524889      4.25119913      1.99859577
  H     -0.13582695      5.82393482      4.89753425
  H     -0.58834809      6.51176006      3.29766688
  H     -0.24217847      7.58997074      4.67868412
  N      3.99297208      0.96137900      3.72730807
  C      5.01369313      1.60696753      4.28218473
  N      4.98071884      1.41467508      5.59113457
  C      3.90782493      0.63231653      5.88688330
  C      3.28834522      0.33976904      4.71246641
  C      3.69832561      0.89138538      2.31742157
  C      4.65177169     -0.06766169      1.61386370
  C      5.88197951      2.03257709      6.51963242
  H      5.80565071      2.16834433      3.79262454
  H      3.65106626      0.37520479      6.89271711
  H      2.39270428     -0.20850765      4.48463663
  H      2.65956248      0.55577906      2.21825331
  H      3.80701232      1.89106329      1.89142184
  H      4.39745596     -0.12298119      0.55919684
  H      4.56989510     -1.06485368      2.04037100
  H      5.67787222      0.27796622      1.71088920
  H      6.72383631      2.44398200      5.95311377
  H      6.23267003      1.30067504      7.25014268
  H      5.35979442      2.84184128      7.03748293
  N     -0.72318017      2.21357014      4.63454547
  C      0.43409070      2.39296493      4.00287787
  N      0.23928863      3.20345943      2.96894999
  C     -1.08635710      3.51623911      2.90602557
  C     -1.68982587      2.89790203      3.95287178
  C     -0.89907440      1.37193119      5.78915352
  C     -0.47148306      2.09316067      7.06230552
  C      1.21919469      3.61766049      2.00872866
  H      1.38658564      2.05814424      4.36108209
  H     -1.46186524      4.17876921      2.15058155
  H     -2.71642091      2.88408011      4.25599950
  H     -1.95094968      1.07734813      5.84091326
  H     -0.29010212      0.47874019      5.62794870
  H     -0.51303293      1.41364324      7.90895432
  H     -1.12307591      2.94176191      7.25971183
  H      0.54746396      2.45820621      6.95511435
  H      2.17522960      3.75928815      2.50821837
  H      0.87653928      4.55022806      1.54943257
  H      1.32560342      2.85152265      1.23881440
 Cl     25.55486558     26.99193350     29.67011993
 Cl      2.66039417      3.40954035      6.17003453
 Cl     -0.53656713      6.35033114      1.07999436
 Cl      7.81626748      2.97198730      3.81276901
 Cl      0.49953957     -0.05172697      2.95806277
