62
Energy =    -96.26686272 au
  N      7.59063008      7.12462017      3.33766810
  C      8.39209119      7.58748371      2.37929169
  N      9.60054062      7.05373708      2.53846569
  C      9.56864698      6.23313234      3.63092712
  C      8.30454451      6.27879065      4.13001886
  C      6.19285144      7.43890629      3.51369815
  C      5.38963689      7.05449135      2.27755889
  C     10.71831447      7.32523774      1.68024768
  H      8.17455516      8.26384299      1.55232500
  H     10.42909563      5.69182036      3.96741433
  H      7.84161431      5.80703376      4.98089095
  H      5.84846881      6.88623193      4.39323835
  H      6.09423710      8.51195094      3.70134508
  H      4.34283455      7.29810450      2.43364867
  H      5.47120782      5.98657487      2.09198713
  H      5.74955636      7.59237501      1.40378865
  H     11.10483507      6.39771303      1.25780624
  H     11.51282937      7.82398697      2.23602643
  H     10.35929029      7.97925452      0.87549266
  N      7.71829797      1.96505783      4.77989653
  C      7.79517214      0.64108615      4.87913024
  N      8.02825131      0.31139908      6.14332036
  C      8.06712705      1.45412498      6.88353277
  C      7.86660964      2.49389611      6.03179726
  C      7.43011065      2.70822138      3.57845762
  C      5.97592934      3.16046649      3.57652713
  C      8.13752869     -1.02054687      6.66390804
  H      7.71244298     -0.04603919      4.06244583
  H      8.21795240      1.40913288      7.94592180
  H      7.75193891      3.54364245      6.21835011
  H      8.09986783      3.57256897      3.53647578
  H      7.62837705      2.05426167      2.72522444
  H      5.72472212      3.60759964      2.61897338
  H      5.81686909      3.88667708      4.36935343
  H      5.34014763      2.29494898      3.74422466
  H      8.09011170     -0.96363785      7.75708845
  H      9.08323254     -1.47445404      6.36247254
  H      7.31369510     -1.61875800      6.27608102
  N      4.53794114      0.25196817      7.83230239
  C      3.78855983      0.91353281      6.95629683
  N      4.11910397      2.19968506      6.97761247
  C      5.12973926      2.35836327      7.87863132
  C      5.39810376      1.13697235      8.41246531
  C      4.51983479     -1.18195704      7.99841911
  C      4.94856919     -1.61026392      9.39070813
  C      3.52657226      3.24840190      6.19747728
  H      3.02897570      0.47949842      6.33888878
  H      5.59157527      3.31137135      8.03620720
  H      6.16060476      0.82936568      9.10904009
  H      3.50327981     -1.52442899      7.77881129
  H      5.18424668     -1.60776371      7.24026761
  H      4.88804370     -2.69260085      9.46878734
  H      4.29803399     -1.16951992     10.14357831
  H      5.97462048     -1.30805921      9.59356759
  H      4.22876732      4.08422285      6.15192397
  H      2.59479916      3.58686524      6.65593824
  H      3.32405201      2.88831956      5.19093028
 Cl      6.10090340      5.42632748      6.35878678
 Cl      5.15589557     -0.16242905      4.78519443
 Cl      8.06428185     -0.14966946      9.86772524
 Cl    -28.33854385     15.06192122     11.85221798
 Cl      8.77147368      9.16149293     -0.24583417
