62
Energy =    -96.26255706 au
  N      5.36549011      7.87773813      9.70544823
  C      4.23679347      7.66783125      9.03412870
  N      4.32627958      8.26195082      7.84903679
  C      5.54533035      8.86817645      7.76554284
  C      6.19979692      8.62434377      8.93468716
  C      5.68574499      7.35299185     11.01091747
  C      5.73942633      5.83004965     10.96892237
  C      3.31956727      8.24936623      6.82668974
  H      3.40028272      7.06009936      9.36561904
  H      5.85466666      9.38237075      6.88014233
  H      7.15913269      8.93180444      9.32213227
  H      6.65171806      7.78753941     11.29948647
  H      4.91612492      7.67607161     11.71702879
  H      6.01100584      5.44851429     11.94904383
  H      6.48619385      5.49968785     10.25040344
  H      4.77043123      5.42057632     10.68929798
  H      2.52059535      7.57644660      7.12873485
  H      3.76733771      7.91016480      5.88313864
  H      2.91683558      9.25239663      6.67912285
  N      3.52054438      4.75504390      6.04001483
  C      2.33394120      4.65843202      6.63021027
  N      1.41971910      4.37581676      5.70712004
  C      2.03585466      4.28661871      4.49674798
  C      3.35898171      4.52626266      4.70679428
  C      4.77073619      5.03055055      6.70081734
  C      5.62670884      3.77292946      6.80021580
  C      0.00895258      4.20941981      5.91584665
  H      2.15658113      4.82204640      7.68930674
  H      1.46053623      4.04814016      3.61753889
  H      4.17738094      4.60524141      4.02277230
  H      5.28665474      5.80089612      6.11657170
  H      4.54076865      5.40219254      7.70022963
  H      6.56234040      4.01327073      7.29711670
  H      5.85051147      3.38124702      5.81071439
  H      5.11174015      3.00635559      7.37658138
  H     -0.44096097      3.92349955      4.95761286
  H     -0.43202417      5.14378149      6.26295837
  H     -0.17303565      3.43969391      6.66468161
  N      2.37715689      8.23633925      2.58408175
  C      3.57589518      8.52490386      2.08706713
  N      4.04372178      9.62396401      2.66838357
  C      3.09077693     10.08645737      3.52042397
  C      2.04567872      9.22098760      3.46887598
  C      1.57625383      7.10149320      2.17437468
  C      0.36899194      6.87929074      3.06630974
  C      5.30448138     10.22314181      2.35621984
  H      4.13140979      7.90228816      1.41838398
  H      3.22696875     10.98029393      4.09452516
  H      1.11367074      9.23835415      3.99196608
  H      1.26505503      7.26932007      1.13803999
  H      2.22152873      6.21937571      2.19994807
  H     -0.08611454      5.92024552      2.82130421
  H     -0.37473564      7.66046342      2.92674368
  H      0.67101463      6.85126350      4.11103240
  H      5.39781497     11.17299482      2.87851680
  H      5.34604173     10.38292027      1.27674868
  H      6.10861413      9.55237085      2.66459574
 Cl      2.04636809      5.44445643      9.73872212
 Cl      5.15510457      7.26293893      4.27351643
 Cl     -0.64977851      3.52446911      2.75105780
 Cl      8.45663399      9.20921807     11.20505070
 Cl      3.01852329      9.74851026     -0.14762088
