62
Energy =    -96.26602874 au
  N      3.81694161      5.87538045      3.52827275
  C      4.01767418      4.56048379      3.52064781
  N      4.52003182      4.21007641      2.34045871
  C      4.65092933      5.32213866      1.57014072
  C      4.21047201      6.36996446      2.31730959
  C      3.33358598      6.66453825      4.64000739
  C      4.43898567      7.52096921      5.23897791
  C      4.87386783      2.88657772      1.91011279
  H      3.78831949      3.87821651      4.33319061
  H      5.04810682      5.24038961      0.56716880
  H      4.14307808      7.41184010      2.08321580
  H      2.51848293      7.30380156      4.29267781
  H      2.94037886      5.98372983      5.39507055
  H      4.04543106      8.01339122      6.13000480
  H      4.77847541      8.27859926      4.53658042
  H      5.28902207      6.90506370      5.52392928
  H      5.63903997      2.47118845      2.56535705
  H      5.25403120      2.96066876      0.88512247
  H      4.00019599      2.23646857      1.94291425
  N     -0.50579155      2.78400482      7.50641951
  C      0.70069662      2.23785897      7.62614232
  N      1.13118339      2.41677920      8.86880079
  C      0.17497351      3.08894414      9.56594353
  C     -0.85723138      3.31942647      8.70813322
  C     -1.31939696      2.80547231      6.31754804
  C     -2.09902725      1.50257764      6.17499854
  C      2.40046108      1.99917099      9.38822436
  H      1.29253958      1.82633999      6.82696862
  H      0.35535558      3.39469261     10.57963801
  H     -1.77783500      3.86465146      8.80969304
  H     -2.01331820      3.65143599      6.41930432
  H     -0.66565755      2.95173994      5.45511296
  H     -2.70921691      1.54045190      5.27732248
  H     -2.75476828      1.36622780      7.03132404
  H     -1.42305531      0.65121908      6.10575817
  H      2.33300469      0.98504871      9.78618502
  H      2.67308104      2.68041955     10.20137593
  H      3.13694370      2.02026178      8.58797567
  N      2.67219691      5.63441024      8.59864507
  C      1.80117485      6.47545333      9.14173383
  N      0.66347254      6.43752962      8.45987706
  C      0.83125261      5.58332990      7.41415345
  C      2.08839768      5.06937957      7.50484470
  C      4.00272862      5.42656471      9.11882548
  C      4.92448723      4.74143177      8.12614628
  C     -0.51344108      7.21668861      8.71057123
  H      1.97549006      7.03773091     10.03511236
  H      0.04647063      5.41889716      6.70508921
  H      2.57187039      4.32369922      6.90266044
  H      4.39711117      6.41634711      9.36679704
  H      3.90540594      4.84813698     10.04528284
  H      5.89539615      4.58589355      8.59012242
  H      5.05685465      5.36594677      7.24642351
  H      4.53973889      3.77681711      7.80915662
  H     -1.37788307      6.71555953      8.26754600
  H     -0.39294209      8.20819892      8.26994086
  H     -0.66051363      7.32055207      9.78407879
 Cl      5.88524440      3.99827966     -1.08633900
 Cl      3.30086436      2.31427004      5.75645024
 Cl     -3.13383003      5.31812442      7.42697879
 Cl      2.28466628      4.24179561     11.79330336
 Cl      2.81996477      8.71563974      7.96729250
