62
Energy =    -96.26908295 au
  N      2.62412798      8.25511760      4.69420366
  C      1.65954071      7.60689824      4.05129640
  N      1.72319290      7.90129345      2.76215622
  C      2.75789614      8.76430889      2.57410213
  C      3.32681454      8.98747711      3.78824297
  C      2.94167697      8.17258606      6.10011734
  C      2.97033088      6.71877836      6.56194630
  C      0.81113204      7.40519860      1.77634948
  H      0.92330482      6.96535127      4.48774011
  H      3.01544033      9.14303219      1.60632289
  H      4.18358158      9.56367505      4.08874864
  H      3.91883909      8.64891961      6.23063401
  H      2.19560476      8.74053607      6.66568163
  H      3.49715100      6.63683438      7.50897883
  H      3.47525089      6.11053904      5.81409531
  H      1.96158306      6.33306814      6.69008589
  H      0.96689028      6.33542530      1.63231541
  H      0.96545418      7.93021267      0.83624087
  H     -0.20045595      7.58804660      2.15693639
  N      5.04702611      2.53803089      5.28012480
  C      5.63042869      1.55054047      5.95422395
  N      6.81815083      1.96739715      6.37177064
  C      7.00968191      3.25227921      5.95885928
  C      5.88973537      3.61104121      5.27349531
  C      3.72134408      2.51721725      4.71182825
  C      2.66872861      2.46911515      5.81379898
  C      7.73763384      1.17431562      7.13515180
  H      5.25284177      0.54981291      6.15573793
  H      7.90809186      3.79365089      6.21558117
  H      5.61717821      4.51277302      4.75976147
  H      3.60802258      3.42561414      4.11242032
  H      3.62718034      1.63891507      4.06793584
  H      1.67646738      2.47317245      5.37182948
  H      2.76198144      3.33947352      6.45918013
  H      2.78677725      1.56863514      6.41251712
  H      7.26693360      0.21143615      7.34125286
  H      7.98605103      1.69003429      8.06216338
  H      8.65945031      1.02914350      6.57194930
  N      7.02420442      7.24339024      3.47132263
  C      6.38369080      7.17550964      4.63255828
  N      7.22761154      6.76363167      5.56950718
  C      8.45367590      6.59286293      5.00432783
  C      8.32739115      6.89340437      3.68607991
  C      6.44751559      7.69318495      2.23197268
  C      6.65975185      9.19368604      2.06429158
  C      6.94633348      6.61387204      6.96697792
  H      5.33475099      7.34373556      4.74985499
  H      9.27678009      6.21589905      5.58393754
  H      9.04998516      6.88339750      2.89636031
  H      6.90978179      7.13371773      1.41309862
  H      5.38307017      7.45182682      2.26875465
  H      6.05151984      9.57564943      1.24934865
  H      7.70587412      9.41477129      1.85979895
  H      6.37794742      9.69574276      2.98737583
  H      6.85059283      7.60286938      7.41863099
  H      7.77297291      6.06586925      7.42309260
  H      6.01515507      6.06709047      7.10292169
 Cl      6.08705130      9.80929055      5.48022624
 Cl      9.72567022      4.61081066      7.29032026
 Cl     -1.12218325      8.56951774      4.06898511
 Cl      5.35542259     -1.40945614      6.96681043
 Cl      3.96736421      5.62475127      3.26327854
