62
Energy =    -96.25418413 au
  N      0.61290745      2.27451524     10.08700261
  C      0.54930886      2.52429217      8.78123526
  N      0.75055397      1.39591046      8.11481959
  C      0.96667385      0.39982397      9.01381297
  C      0.86275878      0.94508933     10.25488733
  C      0.42927998      3.23341166     11.14683228
  C     -0.91755174      3.03290602     11.83372064
  C      0.90512023      1.22094087      6.70228027
  H      0.37501748      3.50905295      8.37237423
  H      1.20051523     -0.59817591      8.71102431
  H      0.99202768      0.50257401     11.22061289
  H      1.24710912      3.12094327     11.86265554
  H      0.47104394      4.23197151     10.69194077
  H     -1.02659671      3.75858512     12.63455475
  H     -1.00709078      2.03032977     12.25216934
  H     -1.72108889      3.18964632     11.11851046
  H      0.30136200      0.37888947      6.36414226
  H      1.96047547      0.99951004      6.52053735
  H      0.61819161      2.12083785      6.15438894
  N      4.11454506      4.01763055      5.33695206
  C      3.32158760      3.93052445      6.40249461
  N      4.02885602      4.17988369      7.49557148
  C      5.31029069      4.43989797      7.12864283
  C      5.36642860      4.33597575      5.77257198
  C      3.70262222      3.75584534      3.97600610
  C      4.23639983      4.78764463      2.99270672
  C      3.56551755      4.11985472      8.85135332
  H      2.26757073      3.72811074      6.34123553
  H      6.05695528      4.75484571      7.83832904
  H      6.19397277      4.46230681      5.10725379
  H      4.05741614      2.75672436      3.69794901
  H      2.60628030      3.74635486      3.97240257
  H      3.83028670      4.57878176      2.00696876
  H      5.32208558      4.75979576      2.92480499
  H      3.93607108      5.79377829      3.26983442
  H      4.28125683      4.64198889      9.48206849
  H      3.51041545      3.06798259      9.14680888
  H      2.58391549      4.58506022      8.94232872
  N      4.63857200      7.63214862      6.27802523
  C      3.72665683      7.62349505      5.30870433
  N      2.56377477      7.23604418      5.82216177
  C      2.73569471      6.99711340      7.15390175
  C      4.04177021      7.25130205      7.43996986
  C      6.03043551      7.97856893      6.12579945
  C      6.18041530      9.43087125      5.68974436
  C      1.34160853      7.05090821      5.09383069
  H      3.90700776      7.95233831      4.28524135
  H      1.92929056      6.66736867      7.78375516
  H      4.61245412      7.15720127      8.34533599
  H      6.51773822      7.77585142      7.08508058
  H      6.46555024      7.32811989      5.36215263
  H      7.23484273      9.68307314      5.61543468
  H      5.71241003     10.09695337      6.41167403
  H      5.71574806      9.57369274      4.71542964
  H      0.51840886      7.51959406      5.63157895
  H      1.11117179      5.98348115      4.99155773
  H      1.44507368      7.49371806      4.10569527
 Cl      4.46069271      8.87924364      2.48606371
 Cl      6.83958177      6.54207487      9.14248792
 Cl      0.42886640      3.76948489      4.64517913
 Cl      0.29803758      5.74734091      9.13281020
 Cl      3.72322247      0.69676788      8.31202564
