62
Energy =    -96.16652646 au
  N      5.57488683      9.18347369      9.56190975
  C      6.82685054      9.09785970      8.95525775
  N      7.46266351      8.00283604      9.52743347
  C      6.66389661      7.51589397     10.52464335
  C      5.50824336      8.21565663     10.53500094
  C      4.46327957      9.93932158      9.06307959
  C      3.66533620      9.17363125      8.00685615
  C      8.71018491      7.43897984      9.12013681
  H      6.94990874      9.31908087      7.90628888
  H      6.98561230      6.69178671     11.12567690
  H      4.63385897      8.09522493     11.13959370
  H      3.80906539     10.17866335      9.90678776
  H      4.85005565     10.87544215      8.64312981
  H      2.82985422      9.77709019      7.66052487
  H      3.27779139      8.24889233      8.42963634
  H      4.29703772      8.92755065      7.15634195
  H      8.73196339      6.38771934      9.41553578
  H      9.55679018      7.95630063      9.58732871
  H      8.81892699      7.50889082      8.03573622
  N      6.89597317      4.11535040      6.71155460
  C      7.33445935      3.17568516      7.54220201
  N      8.59688298      2.88833590      7.25235187
  C      8.96733590      3.63708427      6.17592610
  C      7.90134746      4.40914660      5.83865826
  C      5.58477486      4.71281242      6.77786801
  C      5.54625757      5.77559848      7.86815062
  C      9.37639447      1.92692103      7.97230912
  H      6.80195106      2.78000289      8.38044847
  H      9.94165219      3.56602836      5.73731820
  H      7.78251325      5.12623596      5.05249534
  H      5.34655749      5.13611017      5.79955845
  H      4.87559853      3.91244436      6.99176944
  H      4.52314874      5.99534508      8.16240222
  H      6.02078732      6.69164762      7.52662964
  H      6.08269424      5.41837817      8.74328337
  H     10.39159615      1.90429073      7.58250676
  H      8.91232355      0.94440184      7.87051606
  H      9.38309896      2.21580470      9.02597913
  N      4.70083729      3.36473378     10.48325111
  C      3.76613813      3.29151329      9.53196557
  N      3.91395464      2.13366500      8.87523687
  C      4.96328791      1.45873945      9.43055295
  C      5.45351526      2.23095307     10.43744727
  C      4.88923468      4.47395232     11.37877681
  C      4.33469881      4.16214325     12.76440384
  C      3.18138165      1.69843836      7.72208255
  H      3.07342764      4.09660775      9.32177273
  H      5.30422176      0.52871019      9.02573101
  H      6.29791607      2.08709552     11.07932533
  H      5.96279000      4.67140762     11.42659227
  H      4.36797152      5.33139017     10.94636412
  H      4.51426885      5.00621250     13.42402149
  H      4.81489633      3.28099901     13.18694493
  H      3.26211938      3.98918397     12.70788738
  H      2.54874046      0.84338343      7.96886074
  H      3.90408031      1.39611112      6.95569844
  H      2.56125066      2.51484096      7.35884647
 Cl     -6.89966174     16.97640375    -18.75329261
 Cl      8.14420492      4.17629982     10.19740637
 Cl      2.41759370      6.16279596      9.45483546
 Cl      6.18629921      1.07463438      6.42850481
 Cl     -4.97686016     18.95095837    -18.47110009
