62
Energy =    -96.25929489 au
  N      3.89845792      5.51517796      8.87639182
  C      4.03925602      4.20987601      8.66370350
  N      4.90655564      4.02687231      7.67219820
  C      5.30238390      5.25307281      7.21744750
  C      4.67159068      6.18755072      7.97099888
  C      3.06266482      6.14393580      9.86516932
  C      3.91040031      6.88078108     10.89579362
  C      5.25166082      2.76852505      7.07643900
  H      3.58092887      3.43193091      9.23640822
  H      5.98801178      5.33858395      6.39457251
  H      4.75513351      7.26078211      7.99521383
  H      2.40559738      6.85379095      9.35592337
  H      2.44619034      5.36747508     10.32470173
  H      3.26874594      7.34478662     11.64000808
  H      4.49492985      7.65830404     10.40446500
  H      4.59029154      6.19406244     11.39637086
  H      5.76265990      2.12836159      7.79735949
  H      5.90885208      2.95847817      6.22680050
  H      4.33426176      2.27604364      6.74769469
  N      4.70869140      5.94669882      1.82257008
  C      4.69378372      5.44080017      3.05246657
  N      3.43113891      5.27953695      3.43388925
  C      2.62232893      5.70267114      2.41840513
  C      3.42707880      6.12044661      1.40369457
  C      5.87602133      6.25651318      1.03028685
  C      6.82402326      5.06691120      0.96465451
  C      3.00563127      4.75279723      4.69902226
  H      5.56188682      5.16563885      3.64625334
  H      1.55525357      5.67118676      2.49349439
  H      3.22885008      6.50558226      0.41203790
  H      5.51168875      6.53738654      0.03380682
  H      6.38332677      7.11590074      1.47903109
  H      7.69136451      5.32612722      0.36381943
  H      6.32693994      4.21803715      0.50177696
  H      7.15983466      4.77854622      1.95809991
  H      2.15700912      4.08281112      4.57860274
  H      2.70939932      5.54969915      5.38149996
  H      3.82402784      4.20338564      5.15253824
  N      9.43310902      7.16696974      5.26043430
  C      9.54434713      6.87571251      6.55000802
  N      8.41357228      7.20120833      7.16554956
  C      7.54814425      7.70029788      6.24163445
  C      8.18936993      7.67750095      5.04245190
  C     10.47985429      6.96306195      4.28811848
  C     10.06006260      5.94598301      3.23480924
  C      8.12524298      7.05156590      8.56304018
  H     10.47134422      6.51768969      6.98785349
  H      6.57758140      8.05389477      6.52567342
  H      7.84978204      7.97109664      4.07147705
  H     10.71207215      7.92517750      3.81926003
  H     11.35883315      6.62391466      4.84735381
  H     10.92362518      5.63197739      2.65556048
  H      9.31612985      6.36321448      2.55905507
  H      9.62629494      5.07431260      3.71633336
  H      7.76321394      6.04207516      8.76390703
  H      7.34355449      7.76836992      8.83801431
  H      9.02876814      7.23036018      9.14247890
 Cl      7.24283487      4.37897877      4.68501350
 Cl      5.56231557      9.21194640      8.82630407
 Cl     12.64994642      6.55134426      6.89598075
 Cl      1.82758169      3.46106785      7.37775615
 Cl      3.92105976      7.10884828     -1.60574524
