62
Energy =    -96.25524600 au
  N      2.16552223      3.73858631      8.31173508
  C      1.55481754      4.05052780      9.44954051
  N      2.46777664      4.46427325     10.32213633
  C      3.69136826      4.42062971      9.72348536
  C      3.50431986      3.95812080      8.45839003
  C      1.49181743      3.23772230      7.13744314
  C      1.88454652      4.03461002      5.90080786
  C      2.25171089      4.89093088     11.67542102
  H      0.47538822      3.99273403      9.56866406
  H      4.56743943      4.70060658     10.28119409
  H      4.20686180      3.78082490      7.66407636
  H      1.76394478      2.18671095      6.99939870
  H      0.41674395      3.30951208      7.33800793
  H      1.33898118      3.65907090      5.03950879
  H      2.95086382      3.94277344      5.70714906
  H      1.63823333      5.08461993      6.03989557
  H      3.22383566      4.92012135     12.17572544
  H      1.58480464      4.19790553     12.18556401
  H      1.80612630      5.88649030     11.69378200
  N      4.04996588      5.12696494      3.15986483
  C      2.86685403      5.47191010      2.66241491
  N      2.37372787      6.48510025      3.37443796
  C      3.30314748      6.82932086      4.31476624
  C      4.35216964      5.97895169      4.17987827
  C      4.93157927      4.11116492      2.64463649
  C      5.89114665      4.72558738      1.63100004
  C      1.17622289      7.19396828      3.03416908
  H      2.34742583      4.95649293      1.88285863
  H      3.14769573      7.63801579      4.99839772
  H      5.24588615      5.86173795      4.75798651
  H      5.46426379      3.67940787      3.49743675
  H      4.32174323      3.34013035      2.16877900
  H      6.45847337      3.94614365      1.13015082
  H      6.58339284      5.40186965      2.12641648
  H      5.32328734      5.28984724      0.89360619
  H      1.26941294      7.50451707      1.98851788
  H      1.07013037      8.06538216      3.67565852
  H      0.30325608      6.54949801      3.14559589
  N      6.94326386      2.99893675      8.99085468
  C      7.04492647      1.98577552      8.13285970
  N      6.59354467      0.87638762      8.70036747
  C      6.20637630      1.18818595      9.96878044
  C      6.41938961      2.52032268     10.15221759
  C      7.29296013      4.37050452      8.71150958
  C      8.10829993      4.97801538      9.84308205
  C      6.57035263     -0.42829981      8.11432279
  H      7.39143079      2.06791676      7.12241715
  H      5.82694165      0.44833330     10.64192697
  H      6.22090459      3.14992592     11.00325728
  H      7.84399088      4.37999000      7.76875735
  H      6.37066531      4.93992866      8.56510235
  H      8.43178441      5.97689647      9.56266071
  H      8.98567049      4.36974393     10.05253587
  H      7.50501402      5.05435660     10.74487553
  H      5.67272450     -0.95681958      8.42917466
  H      7.45794850     -1.01296722      8.44585003
  H      6.58816676     -0.34134897      7.03069016
 Cl     -1.49218821      3.80141991      8.75596935
 Cl      5.62232426      3.53250630      5.88447733
 Cl      3.19277156      6.89973303      0.46250347
 Cl      5.59557785      4.93488666     12.36318455
 Cl      9.13927019     -2.01808426      9.13657623
