62
Energy =    -96.27234905 au
  N      5.89384749      3.73885998      0.45194963
  C      5.11595511      2.98387829      1.21482778
  N      4.98571955      3.54728555      2.40621887
  C      5.67454035      4.71794487      2.39785650
  C      6.24508452      4.83847048      1.16961576
  C      6.26701520      3.48373906     -0.91579905
  C      5.58168082      4.48748288     -1.83820949
  C      4.23102637      3.00606528      3.49787125
  H      4.69063897      2.03780803      0.94319471
  H      5.71857635      5.35428094      3.25630296
  H      6.87810078      5.59835807      0.76313816
  H      7.36027174      3.55109945     -0.99012407
  H      5.95331206      2.46660704     -1.15848020
  H      5.66718265      4.16675051     -2.87307264
  H      6.03509857      5.47016343     -1.73887327
  H      4.52999930      4.56874726     -1.57077104
  H      3.18343954      3.29173161      3.39710780
  H      4.62890831      3.39107066      4.43528355
  H      4.31490167      1.91920870      3.46825149
  N      7.45748309      1.74375156      4.29851874
  C      7.75309184      0.81391396      3.39286242
  N      8.28716823      1.40326726      2.32799898
  C      8.32411714      2.74804613      2.55171712
  C      7.80806102      2.96175386      3.79013031
  C      6.82832279      1.51504969      5.57390108
  C      7.82479693      0.96486365      6.58931337
  C      8.61798054      0.76374728      1.08793917
  H      7.62054057     -0.23939967      3.51840037
  H      8.71891824      3.40932680      1.80118804
  H      7.62664829      3.86124050      4.34393527
  H      6.42954961      2.47347329      5.92111229
  H      6.00557380      0.81258261      5.42185782
  H      7.32552198      0.81174894      7.54207984
  H      8.63769037      1.67267236      6.73637738
  H      8.24063385      0.01567977      6.25433734
  H      9.39067911      0.00885433      1.23909910
  H      8.97413195      1.52965259      0.39301329
  H      7.72022967      0.28290452      0.69680497
  N      1.91988454      7.50553074      3.53248997
  C      2.13511909      8.05907708      4.72017175
  N      3.03041980      7.32117720      5.37197645
  C      3.39104727      6.27443500      4.57579201
  C      2.69517851      6.38898835      3.41391314
  C      1.01743751      8.02360322      2.53358015
  C      1.74627695      8.26144670      1.21709631
  C      3.55750244      7.55346917      6.68662580
  H      1.62659715      8.95763749      5.07216140
  H      4.11636338      5.55962555      4.91583906
  H      2.71111493      5.79062835      2.51541733
  H      0.21607270      7.29470948      2.37811555
  H      0.59172758      8.94685736      2.93632375
  H      1.05680557      8.68114430      0.48950561
  H      2.13705672      7.32329503      0.82583775
  H      2.57009286      8.95706206      1.35995449
  H      3.90709153      8.58148890      6.77553294
  H      4.38580212      6.86283119      6.84744927
  H      2.78910464      7.38061381      7.44164537
 Cl      0.30498771     10.56983549      5.22874274
 Cl      9.63944104      3.58374872     -0.41892041
 Cl      5.93072104      4.77238834      6.15528289
 Cl      5.41068149     -0.06006218      2.39180700
 Cl      2.79714376      4.87546804      0.48394764
