16
Energy =   -226.21119754 au
  N     -0.88177700     -2.06778300      0.74061100
  H     -0.21660500     -1.36738700      1.08193000
  H     -1.69490800     -1.53264300      0.47806900
  H     -0.50714000     -2.40263000     -0.16275100
  N     -3.16474000      0.64207400     -0.53568300
  H     -2.82160800      0.76596500     -1.50297700
  H     -2.35396000      0.81372700      0.01830400
  H     -3.75080600      1.46099000     -0.36120400
  N      2.78078500     -0.57073100     -0.87679900
  H      3.36291800     -1.01545900     -0.15586400
  H      1.94777200     -1.15617600     -0.97468000
  H      2.44533200      0.31676600     -0.46634700
  N      1.33304600      1.74916800      0.61143800
  H      1.51142800      2.78756800      0.67635800
  H      1.22224000      1.42709700      1.58446100
  H      0.38414300      1.63308300      0.20773000
