16
Energy =   -226.20889475 au
  N     -0.10095000     -2.32741900     -0.06929000
  H     -0.17453700     -2.82580700      0.82537100
  H      0.80875600     -1.84378000      0.00123400
  H      0.07396800     -3.06871900     -0.75969200
  N     -0.91573200      2.61232500     -0.09928800
  H     -0.82016900      1.76218600     -0.64918600
  H     -1.20821300      2.27947800      0.82040800
  H      0.04887700      2.91974300      0.03266200
  N     -2.72025800     -0.43086100      0.13092100
  H     -2.84402100      0.38468000     -0.47212400
  H     -2.41882700     -1.19072900     -0.46484700
  H     -1.86863800     -0.24401900      0.66227800
  N      3.57704800      0.27592500     -0.01441900
  H      3.10378200     -0.62364300      0.17915400
  H      2.92305800      0.73932400     -0.66045100
  H      3.49520900      0.80149200      0.84972700
