16
Energy =   -226.21962417 au
  N     -3.05385300     -0.90551400     -0.09675900
  H     -2.64184000     -1.27862300     -0.95748600
  H     -2.57965200     -1.42131200      0.65143900
  H     -2.65325300      0.03653500     -0.02788100
  N      1.36944300     -0.47730400     -2.73470800
  H      0.34692400     -0.50283400     -2.79493200
  H      1.59738600      0.52034900     -2.69814800
  H      1.55536600     -0.81128000     -1.78159300
  N      0.11871800      3.02678700      0.68668000
  H     -0.84464900      2.75474500      0.90296000
  H      0.66945100      2.64866400      1.46231000
  H      0.36635600      2.42384600     -0.10605300
  N      1.56275300     -1.61772400      2.15098400
  H      2.18621900     -1.82956500      1.36623900
  H      1.32977300     -0.62621000      2.02213400
  H      0.68849300     -2.09802500      1.91762900
