16
Energy =   -226.21319089 au
  N      1.85197200      1.77239600      0.80483600
  H      1.41213800      2.65610500      0.52618700
  H      1.82024800      1.79541100      1.83258400
  H      1.15327300      1.05557500      0.55585700
  N     -2.90121300      0.99044200     -1.04959200
  H     -2.17296900      1.52222900     -0.53037400
  H     -2.42019600      0.64509900     -1.90087000
  H     -3.07105700      0.15663700     -0.47958900
  N      2.90202100     -1.21450100     -0.97790000
  H      3.29432200     -0.29222100     -0.75601900
  H      3.37251700     -1.86272100     -0.33720400
  H      1.95638000     -1.12170600     -0.58938100
  N     -1.94882100     -1.51444900      0.98172000
  H     -1.88139200     -1.58605500      2.00406700
  H     -1.24142500     -0.80790900      0.72444200
  H     -1.54954600     -2.39765900      0.63684900
