16
Energy =   -226.21467738 au
  N     -0.27963200      1.35510800      1.69705100
  H      0.51812300      0.96567600      1.18355200
  H     -0.83574800      0.53708500      1.96548600
  H      0.09874000      1.74904700      2.56264000
  N     -1.36419500     -2.77478500      0.09160300
  H     -1.91593300     -1.91605700     -0.04421200
  H     -0.87745000     -2.88468700     -0.80503800
  H     -0.61200600     -2.46432200      0.71994000
  N      2.94612400     -0.21957500     -0.37930400
  H      3.54867300     -0.19083300     -1.20665900
  H      2.00366500      0.02324900     -0.70760600
  H      2.86975100     -1.20215900     -0.10513900
  N     -1.50293600      1.72867000     -1.37641700
  H     -1.38507800      0.71584400     -1.49348900
  H     -1.27519800      1.90018100     -0.38938300
  H     -0.73306300      2.14105200     -1.91062000
