16
Energy =   -226.21990083 au
  N      1.34227200     -0.00962600      1.68571800
  H      0.62908900      0.54243300      1.18822500
  H      1.14479500      0.11251800      2.68459900
  H      1.08137100     -0.98003100      1.47226600
  N     -1.81068000     -2.67837600     -0.31285100
  H     -2.33666500     -1.82777400     -0.53981500
  H     -1.02362500     -2.66068000     -0.96828700
  H     -1.37921800     -2.45243900      0.58940500
  N      2.70467400      0.19817300     -1.24439400
  H      2.04778300     -0.52537900     -1.54540000
  H      2.25481000      1.07504400     -1.51711800
  H      2.64466300      0.18641100     -0.22040600
  N     -2.17593100      2.46674600     -0.23174500
  H     -1.40110300      2.57194600     -0.89390400
  H     -2.33068900      1.45188200     -0.20660400
  H     -1.75355300      2.66764900      0.67994200
