16
Energy =   -226.22010631 au
  N      1.90451600     -2.63875400     -0.32373800
  H      2.24475000     -1.67447500     -0.40804400
  H      1.55652200     -2.68599500      0.63885700
  H      1.05482200     -2.64460200     -0.89618400
  N      1.98762500      2.59082800     -0.31638900
  H      1.69891900      2.63658000      0.66560700
  H      2.28372600      1.61544900     -0.43403600
  H      1.10656600      2.63715400     -0.83744200
  N     -1.20735000      0.00567600      1.65454900
  H     -1.13217900      0.01064600      2.67777600
  H     -0.64355700      0.80016100      1.32433700
  H     -0.67200600     -0.81264800      1.33577900
  N     -2.74984900      0.02630200     -1.14818500
  H     -2.57226300      0.01031700     -0.13660800
  H     -2.34417300      0.90905300     -1.46699500
  H     -2.12571400     -0.69001300     -1.52670500
