16
Energy =   -226.21527074 au
  N      1.17340100      1.88387500      0.88005000
  H      0.61501500      1.32140700      0.21999100
  H      0.53095700      2.04508300      1.66387600
  H      1.88234100      1.22933100      1.22972100
  N      3.02422600     -0.32450100     -0.72362700
  H      2.21060700     -0.81508600     -0.33185200
  H      3.12449300     -0.67646700     -1.67722700
  H      2.72991500      0.64855600     -0.81666800
  N     -1.07911600     -2.89005800      0.50812800
  H     -0.77762600     -3.12939000     -0.44158100
  H     -0.30215200     -2.33019400      0.87809600
  H     -1.81206000     -2.18573500      0.36248100
  N     -3.12882700      1.33064000     -0.55699800
  H     -2.72192500      0.43142900     -0.27475100
  H     -2.57050300      2.01262200     -0.03473600
  H     -2.83685000      1.44874700     -1.53022000
