16
Energy =   -226.21948690 au
  N     -1.88722300     -0.69529300      2.37474900
  H     -1.87050100     -0.99182700      1.39176300
  H     -0.90083500     -0.74163200      2.64999500
  H     -2.09210600      0.30585100      2.33310200
  N      3.04756800     -0.82772100      0.57959100
  H      2.51700200     -1.70163400      0.58112500
  H      2.66012100     -0.31361700     -0.21765300
  H      2.68977600     -0.31529500      1.39070200
  N     -1.04968800     -1.52049300     -2.46780800
  H     -1.74027000     -1.81874800     -1.77110500
  H     -0.93862700     -0.51695200     -2.28497000
  H     -0.16695700     -1.91999100     -2.13250500
  N     -0.11443100      3.05573600     -0.51036300
  H     -0.46833600      2.74171700     -1.41717000
  H     -0.53449600      2.40218200      0.15874000
  H      0.87164400      2.78434500     -0.51520200
