16
Energy =   -226.21863999 au
  N      0.73744600      2.86493000      0.18050600
  H      1.42893500      2.16179300     -0.10903900
  H     -0.15143700      2.47161300     -0.14825200
  H      0.69493500      2.75777000      1.19804200
  N     -3.57089700     -0.18547100     -0.54739100
  H     -3.55217600      0.69373200     -0.02740900
  H     -3.22657700      0.04771000     -1.48032000
  H     -2.83218100     -0.76410200     -0.12220100
  N     -0.97795100     -1.55842400      0.68208100
  H     -0.84204500     -1.86043500      1.65230200
  H     -0.42459300     -0.69161400      0.59667500
  H     -0.45297300     -2.24035800      0.12350600
  N      3.70552500     -1.11714700     -0.36469700
  H      2.82967800     -1.40630500      0.08975900
  H      3.45798800     -1.05615100     -1.35623800
  H      3.81159100     -0.14087100     -0.07032500
