16
Energy =   -226.22011178 au
  N     -2.77014400     -0.13520400     -1.15476700
  H     -2.31920700     -0.98917300     -1.49054300
  H     -2.59026700     -0.12746700     -0.14350300
  H     -2.18847200      0.62073900     -1.52321400
  N      2.13113100     -2.48394300     -0.30081200
  H      1.76814900     -2.56268800      0.65415800
  H      1.29495600     -2.54495600     -0.88980900
  H      2.40213800     -1.49685100     -0.37239300
  N     -1.23882800     -0.04745900      1.65099000
  H     -0.79020100      0.83534300      1.37508400
  H     -0.59848000     -0.76392200      1.28175200
  H     -1.16046300     -0.09565700      2.67287100
  N      1.81672800      2.66926100     -0.32977000
  H      2.14227000      1.70156200     -0.43481700
  H      0.93031000      2.68146100     -0.84346400
  H      1.53705900      2.72302200      0.65439200
