439
Energy = -13269.73422754 au
 Ti      1.56979300      0.72813300      4.70491349
 Ti      1.57485661      3.69128621      4.70821796
 Ti      1.57173436      6.63713781      4.66957057
 Ti      1.59349133     12.54426699      4.67673957
 Ti      1.56272663      9.59162456      4.66908453
 Ti      1.60047339     15.49914314      4.68720148
 Ti      7.87682023      0.71428404      4.73508145
 Ti     14.19131876      0.72067681      4.74485388
 Ti      7.88528827      3.67000349      4.73576361
 Ti     14.20322173      3.66264618      4.74275281
 Ti      7.88962636      6.62255729      4.77204890
 Ti     14.18002744      6.61612362      4.74436256
 Ti      7.88017823     12.52601809      4.78390635
 Ti     14.22511153     12.54175593      4.73619562
 Ti      7.88885845      9.57864410      4.77237712
 Ti     14.17491605      9.58709147      4.74796227
 Ti      7.88332924     15.48339327      4.73342269
 Ti     14.22520336     15.49656101      4.73631479
 Ti      4.72126896      2.17539196      5.29128658
 Ti      4.71978998      5.11205724      5.21344314
 Ti      4.70663590      8.11510683      5.19094968
 Ti      4.72053048     14.02042155      5.30484905
 Ti      4.71412772     11.05486251      5.27249298
 Ti      4.72366827     16.95903823      5.29499340
 Ti     11.03448302      2.14232246      5.30201881
 Ti     17.32690539      2.18979072      5.17241780
 Ti     11.02094815      4.94394144      4.77805987
 Ti     17.29689140      5.14241775      5.14673357
 Ti     11.03180503      8.34398973      4.81239487
 Ti     17.30601553      8.10842484      5.16957443
 Ti     11.04312372     14.06667363      5.28458990
 Ti     17.33469804     14.02180317      5.15261011
 Ti     11.04327361     11.16002874      5.26875740
 Ti     17.32424301     11.06554085      5.13779448
 Ti     11.03886512     16.96061889      5.28885912
 Ti     17.32832774     16.96361887      5.13814448
  O      4.72962826      0.71849934      3.75502136
  O      4.72539117      3.69279220      3.74218931
  O      4.72068249      6.61782102      3.68995198
  O      4.71779657     12.53235474      3.75891443
  O      4.71535696      9.59707262      3.69795925
  O      4.66115920     15.50196422      3.75563300
  O     11.02983267      0.71462047      3.76730481
  O     17.26022056      0.71952504      3.66343961
  O     11.02489454      3.55581420      3.67023266
  O     17.18820173      3.69690141      3.66012766
  O     11.02290947      6.61043254      3.74788533
  O     17.18863177      6.62591951      3.65521027
  O     11.02827260     12.52987981      3.75784087
  O     17.18476899     12.52786546      3.63781818
  O     11.03546620      9.67834868      3.62803925
  O     17.25277883      9.59569990      3.64758460
  O     11.02403232     15.50964509      3.75693825
  O     17.18833969     15.50830815      3.65584851
  O      4.72976152      0.71762077      6.38281679
  O      4.72745038      3.69161627      6.33170073
  O      4.79805783      6.62525852      6.32068472
  O      4.73634133      9.54354214      6.31757642
  O      4.74550527     12.52071545      6.38877672
  O      4.72958402     15.49489039      6.38654850
  O     11.03154222      0.70678543      6.39937580
  O     17.40727221      0.71647043      6.24060918
  O     11.03607600      3.71306118      6.24759160
  O     17.40826832      3.69181244      6.23947054
  O     17.34226472      6.62820973      6.23599919
  O     11.03671164     12.59352613      6.38963646
  O     17.41067396     12.53366107      6.23009747
  O     11.02607275      9.54975011      6.16436560
  O     17.40769997      9.59425573      6.23490599
  O     11.03250836     15.50640545      6.39257034
  O     17.40890500     15.49038193      6.23550126
  O      2.76822664      2.20534122      5.12364697
  O      2.76523965      5.18481599      5.12989434
  O      2.76457088      8.11149454      5.11964816
  O      2.75810518     14.01581798      5.19840581
  O      2.76848536     11.03724674      5.12576903
  O      2.76912205     16.99903295      5.12802634
  O      9.06948633      2.19081609      5.12611952
  O     15.35775388      2.19881170      5.19827637
  O      9.11934447      5.13999135      5.11690280
  O     15.29683005      5.13239314      5.27587674
  O      9.13102378      8.05007938      5.04510636
  O     15.30443729      8.11482733      5.20514112
  O      9.07148000     14.01789861      5.12213106
  O     15.35958953     14.01686339      5.20489629
  O      9.08654929     11.08477624      5.05257297
  O     15.35282561     11.03007583      5.19774888
  O      9.06972675     16.95377792      5.12669603
  O     15.35853671     16.99679873      5.20256091
  O      0.39349356      2.21107655      5.03396612
  O      0.37783178      5.18159588      4.96812701
  O      0.38036618      8.11057428      4.96572754
  O      0.38649227     14.01833690      4.89124719
  O      0.39253158     11.09221820      4.96263410
  O      0.39872695     16.94075781      5.03153794
  O      6.68816351      2.20087683      5.12183186
  O     12.98793704      2.19879881      5.11891863
  O      6.69939613      5.12260563      5.11798889
  O     12.92895305      5.14126716      5.03831768
  O      6.68473330      8.11241902      4.95787202
  O     12.92199721      8.04689172      5.04723361
  O      6.67422427     14.02395567      5.12236492
  O     12.98793990     14.01915124      5.04818261
  O      6.66533482     11.02444864      5.02919678
  O     12.98807449     11.09408293      5.11921050
  O      6.68468605     16.94800173      5.12337322
  O     12.98962629     16.94567884      5.11673585
 Ti      1.57360653      2.20040234      1.51135972
 Ti      1.57529442      5.15476200      1.51074013
 Ti      1.58908636      8.11289731      1.47689341
 Ti      1.56133621     14.02452410      1.50103587
 Ti      1.57684771     11.07501716      1.49864888
 Ti      1.57217507     16.97270793      1.51075283
 Ti      7.87643063      2.21188031      1.50440125
 Ti     14.25167395      2.20248162      1.50287070
 Ti      7.87817570      5.17811074      1.52460451
 Ti     14.24613825      5.16216483      1.51530458
 Ti      7.88226842      8.12372059      1.52836804
 Ti     14.26151661      8.11197380      1.50347310
 Ti      7.87811213     14.00619750      1.51834569
 Ti     14.19854419     14.02142208      1.49508929
 Ti      7.88027471     11.06347392      1.55431365
 Ti     14.25416159     11.06983004      1.50828742
 Ti      7.88111383     16.96331972      1.51317472
 Ti     14.22110664     16.97495768      1.51527482
 Ti      4.72682077      0.72063033      1.92586543
 Ti      4.71537065      3.67235794      1.90206670
 Ti      4.72407817      6.62770547      1.87245891
 Ti      4.71749825     12.55137481      1.92615670
 Ti      4.72159815      9.60194577      1.87122023
 Ti      4.69936605     15.49821842      1.91358547
 Ti     11.04491548      0.71853636      1.93590064
 Ti     17.39192227      0.71789399      1.76731174
 Ti     11.07189376      3.64196237      1.60320202
 Ti     17.35552031      3.68347491      1.77202531
 Ti     11.05054663      6.62762864      1.79784210
 Ti     17.38723916      6.63600358      1.78372644
 Ti     11.03169467     12.54932753      1.92826915
 Ti     17.34717207     12.54963986      1.76897432
 Ti     11.09596591      9.61626597      1.62561209
 Ti     17.40353626      9.59572519      1.77330564
 Ti     11.04733166     15.50541439      1.91189902
 Ti     17.33620197     15.49630278      1.75985448
  O      1.64419408      0.72068658      2.91591391
  O      1.65132864      3.68747446      2.92626267
  O      1.65549758      6.62429765      2.88443365
  O      1.65822030     12.53714135      2.89091382
  O      1.65461941      9.60022902      2.88726594
  O      1.65755249     15.50687789      2.89539333
  O      7.87692492      0.71816103      2.95661208
  O     14.25855822      0.72570241      2.95787675
  O      7.88035882      3.69021202      2.95346516
  O     14.26206298      3.68969895      2.95504832
  O      7.88187048      6.61347515      2.95869690
  O     14.26189973      6.62022750      2.95884484
  O      7.87828637     12.53550125      2.96167392
  O     14.26115807     12.52571524      2.95284353
  O      7.88554895      9.59576353      2.95528366
  O     14.25600301      9.59927014      2.96224545
  O      7.87791501     15.50489038      2.95209379
  O     14.26211322     15.50834230      2.95378672
  O      5.96632275      2.20285771      1.68117202
  O      5.96381502      5.13487746      1.67215149
  O      5.96927537      8.11142912      1.67482599
  O      5.95185350     14.02589504      1.68426718
  O      5.95862186     11.08592674      1.67686876
  O      5.95154021     16.95663379      1.68408665
  O     12.29268678      2.20166619      1.69128752
  O     18.62194527      2.21203875      1.83703183
  O     12.28848442      5.13416771      1.75466566
  O     18.61862137      5.13955987      1.83552236
  O     12.29408456      8.10592029      1.75579841
  O     18.64621954      8.10841927      1.83571351
  O     12.28770851     14.01959388      1.76167405
  O     18.61005829     14.02144781      1.83472518
  O     12.29173184     11.08899300      1.68929984
  O     18.62481597     11.09152816      1.83236569
  O     12.28907143     16.99102128      1.76129412
  O     18.61678836     16.94904277      1.83517420
  O      3.46824466      2.20101308      1.68756953
  O      3.46966372      5.13242887      1.67928872
  O      3.47022571      8.11180638      1.67972626
  O      3.46393061     14.01910835      1.68244271
  O      3.47001342     11.08880523      1.68098896
  O      3.46701852     16.99785020      1.68493418
  O      9.78458206      2.20555575      1.68123448
  O     16.13737485      2.20060898      1.53096178
  O      9.80283398      5.13609391      1.68208523
  O     16.13893425      5.17985811      1.52581890
  O      9.80663827      8.10786083      1.68253562
  O     16.14445458      8.11396350      1.52991514
  O      9.78619752     14.02140175      1.68991350
  O     16.11061672     14.01972214      1.52996211
  O      9.79783682     11.04613869      1.67870178
  O     16.14025970     11.03913750      1.52553785
  O      9.78810381     16.99043047      1.69086875
  O     16.13202849     16.99643460      1.53356439
  O      1.42490848      0.72303738      0.32224690
  O      1.42698647      3.67790351      0.32255247
  O      1.42336097      6.62031140      0.31978984
  O      1.42967278     12.54676980      0.30989723
  O      1.42541950      9.60392985      0.31435214
  O      1.42961620     15.50607749      0.31545354
  O      7.87007123      0.72540159      0.38306341
  O     14.17798723      0.72352371      0.38943062
  O      7.87687897      3.69043252      0.36973199
  O     14.18024490      3.69303337      0.38586520
  O      7.87889048      6.63114604      0.37644466
  O     14.17755615      6.62948855      0.38640398
  O      7.87266327     12.53224484      0.38742393
  O     14.18003798     12.53520008      0.38558657
  O      7.87537824      9.59435022      0.38512348
  O     14.17621037      9.58837410      0.38722501
  O      7.86940722     15.50059990      0.38560698
  O     14.17572970     15.50791851      0.38783921
 Ti      1.21202878      0.71942337     -1.75752175
 Ti      1.21975963      3.67805472     -1.74110369
 Ti      1.22111716      6.63676035     -1.75533981
 Ti      1.22849042     12.55412208     -1.76041713
 Ti      1.22816291      9.59460746     -1.76515972
 Ti      1.22709747     15.51555674     -1.75892704
 Ti      7.81592619      0.70815691     -1.75287415
 Ti     14.38158119      0.71494161     -1.74474248
 Ti      7.80441092      3.67854378     -1.75257935
 Ti     14.37667801      3.68492053     -1.74500898
 Ti      7.81736303      6.63892084     -1.77625323
 Ti     14.39331679      6.64344134     -1.77549943
 Ti      7.83696388     12.55658465     -1.73913837
 Ti     14.41282109     12.55049553     -1.76073407
 Ti      7.83299588      9.59648136     -1.75768511
 Ti     14.39561168      9.59560913     -1.76648022
 Ti      7.81589198     15.51260085     -1.75790650
 Ti     14.40934091     15.51010728     -1.75630241
 Ti      4.52199207      2.19050397     -1.59161227
 Ti      4.52373824      5.15426536     -1.55230957
 Ti      4.52843688      8.11879900     -1.54955447
 Ti      4.52242957     14.02788300     -1.58772473
 Ti      4.53079138     11.07968169     -1.59126437
 Ti      4.51358792     17.00203362     -1.57907569
 Ti     11.08823270      2.18916184     -1.58733264
 Ti     17.65604673      2.19783817     -1.55248141
 Ti     11.08432363      5.15913192     -1.58883355
 Ti     17.66893902      5.16127300     -1.56595475
 Ti     11.08575948      8.12733818     -1.56890861
 Ti     17.68745030      8.12028738     -1.56060303
 Ti     11.11629116     14.03082356     -1.56258642
 Ti     17.68818458     14.03100085     -1.55812337
 Ti     11.09881007     11.08605676     -1.56207204
 Ti     17.69462097     11.07650451     -1.55489374
 Ti     11.10410228     16.98111534     -1.56242844
 Ti     17.67622831     16.99175535     -1.55176830
 Ti      1.30369970      2.19477698     -5.04772806
 Ti      1.31326858      5.12839073     -5.06048784
 Ti      1.30359635      8.09782824     -5.06656126
 Ti      1.29820627     14.00489532     -5.04681690
 Ti      1.30725828     11.07251972     -5.06745828
 Ti      1.18973891     16.97985252     -5.06112726
 Ti      7.88664190      2.17917051     -5.02767245
 Ti     14.46226053      2.18925818     -5.03217217
 Ti      7.90023798      5.11224747     -5.08518336
 Ti     14.48015323      5.11228181     -5.08395591
 Ti      7.89220098      8.10050586     -5.10119657
 Ti     14.47471673      8.10258285     -5.09878726
 Ti      7.90136460     14.00015542     -5.07435167
 Ti     14.48080143     14.05402072     -5.10816406
 Ti      7.90055760     11.08069982     -5.06893140
 Ti     14.49247153     11.08398312     -5.09432306
 Ti      7.79144382     16.97928002     -5.08718989
 Ti     14.46501303     16.99934982     -5.08067258
 Ti      4.50271475      0.67853286     -4.94553993
 Ti      4.59738169      3.66118026     -4.86025121
 Ti      4.58795066      6.64821928     -4.84268471
 Ti      4.60536881     12.54970432     -4.94445295
 Ti      4.55390161      9.59821891     -4.86271729
 Ti      4.49358231     15.51842562     -4.83720531
 Ti     11.07892972      0.67118858     -4.85049841
 Ti     17.67039963      0.74986841     -4.84503371
 Ti     11.18252030      3.65473495     -4.85592691
 Ti     17.76770073      3.67433079     -4.85125511
 Ti     11.15972404      6.63934225     -4.84267761
 Ti     17.67063633      6.63780116     -4.84905131
 Ti     11.17112152     12.54017942     -4.85760201
 Ti     17.76086193     12.53997692     -4.85494921
 Ti     11.16798488      9.57195295     -4.84076381
 Ti     17.76496603      9.55830793     -4.84740701
 Ti     11.15998408     15.52326962     -4.85603701
 Ti     17.68720513     15.52292102     -4.85539531
  O      4.50839834      0.71926992     -0.34010255
  O      4.51180337      3.65916205     -0.33721896
  O      4.51887021      6.64521145     -0.32875073
  O      4.51161413     12.54452216     -0.34718719
  O      4.51399177      9.60207771     -0.33527885
  O      4.50858683     15.51999133     -0.34330149
  O     11.09212688      0.71909360     -0.33393099
  O     17.67306178      0.71960864     -0.32624871
  O     11.08613898      3.66660444     -0.33859022
  O     17.67187301      3.67579707     -0.33129425
  O     11.08687446      6.64625509     -0.33282806
  O     17.67882754      6.64937818     -0.33545907
  O     11.09791677     12.54805853     -0.32934449
  O     17.68737917     12.54486418     -0.32962540
  O     11.08851999      9.59698890     -0.33086711
  O     17.68149603      9.59505575     -0.33078478
  O     11.10075215     15.51551655     -0.32912311
  O     17.68061647     15.52098124     -0.32755178
  O      2.52847458      2.19707998     -1.67679718
  O      2.52832193      5.15681189     -1.59992168
  O      2.53206906      8.11526864     -1.59912302
  O      2.53200488     14.03278665     -1.67630701
  O      2.53590867     11.07698556     -1.67230927
  O      2.52677125     17.00029427     -1.67740184
  O      9.11406052      2.19884860     -1.67864147
  O     15.66027481      2.20128230     -1.60682690
  O      9.11371744      5.15178411     -1.67959564
  O     15.68312353      5.15606203     -1.67034020
  O      9.11588751      8.11405535     -1.67463941
  O     15.69644398      8.11745240     -1.67484631
  O      9.12073918     14.04147867     -1.59814875
  O     15.69885201     14.03604208     -1.59316166
  O      9.11817370     11.07935990     -1.59758737
  O     15.69852913     11.07306338     -1.59923402
  O      9.11734449     16.99008436     -1.59691019
  O     15.68684695     16.99659036     -1.59685671
  O     -0.10072615      2.20175982     -1.60244580
  O     -0.09579378      5.15240906     -1.67670630
  O     -0.07514011      8.11249668     -1.67802483
  O     -0.07997509     14.03686181     -1.67843142
  O     -0.06251463     11.07923762     -1.67655237
  O     -0.08890155     16.99510939     -1.61109102
  O      6.53071700      2.19032508     -1.67172479
  O     13.06451304      2.19708269     -1.67898259
  O      6.52627547      5.15988572     -1.66892877
  O     13.06317794      5.16288646     -1.67592260
  O      6.53688575      8.12127107     -1.67584601
  O     13.06545909      8.11712948     -1.67680757
  O      6.53388118     14.03021317     -1.67708590
  O     13.11354058     14.03292781     -1.68743175
  O      6.54354296     11.07890128     -1.68159552
  O     13.07787612     11.07697217     -1.68239403
  O      6.51999909     16.98999569     -1.67025951
  O     13.08496487     16.98988190     -1.68200143
  O      4.53786602      0.70758103     -2.98954359
  O      4.54403684      3.67864201     -2.95059834
  O      4.54353763      6.63931244     -2.94590286
  O      4.54931403     12.55001857     -3.00414110
  O      4.54615327      9.59563606     -2.95107735
  O      4.54267882     15.51674688     -2.94921836
  O     11.04506561      0.70543087     -2.94757649
  O     17.62852426      0.71755324     -2.94208397
  O     11.12606359      3.67523189     -2.95208329
  O     17.64228330      3.67077609     -2.95163973
  O     11.04922967      6.64422526     -2.95127756
  O     17.63499851      6.63701585     -2.94918907
  O     11.04627626     12.55632668     -2.94631192
  O     17.63298724     12.55424168     -2.94694517
  O     11.04425365      9.59476593     -2.94705195
  O     17.71067856      9.59785626     -2.94637882
  O     11.11407381     15.51567955     -2.94738607
  O     17.62761844     15.51867240     -2.94770046
  O      1.16730567      0.72032719     -3.64614811
  O      1.24142946      3.67323106     -3.64559693
  O      1.25422791      6.63149921     -3.64836590
  O      1.24573761     12.55074781     -3.65661944
  O      1.24698371      9.58996293     -3.65482874
  O      1.24079256     15.51415465     -3.64850943
  O      7.84755798      0.65822843     -3.65317225
  O     14.42834009      0.70876926     -3.65114366
  O      7.75772666      3.67282632     -3.65992126
  O     14.41503644      3.67239459     -3.65396500
  O      7.84214381      6.64068554     -3.67133771
  O     14.41796467      6.63181367     -3.66446899
  O      7.92675950     12.55284276     -3.66165811
  O     14.51267915     12.55925359     -3.66583031
  O      7.92393007      9.59868971     -3.66747811
  O     14.42720808      9.60368487     -3.66342736
  O      7.85000805     15.50868029     -3.66170648
  O     14.51404225     15.51566398     -3.66595195
  O      5.75671982      2.16324301     -5.01435958
  O      5.75975303      5.15448081     -5.01530183
  O      5.76556015      8.14428322     -5.01539114
  O      5.75653567     14.03557632     -5.01636649
  O      5.78411909     11.08130282     -5.09072135
  O      5.76834411     16.97608362     -5.06744863
  O     12.34626893      2.16631666     -5.01136403
  O     18.92693223      2.16872457     -5.01182269
  O     12.35319463      5.15333855     -5.01211275
  O     18.92479343      5.15702773     -5.01288125
  O     12.38480073      8.10072512     -4.98445473
  O     18.93235633      8.05623231     -5.01259674
  O     12.35286853     14.03080392     -5.00936198
  O     18.92498483     14.03379252     -5.01470270
  O     12.37642473     11.06886562     -4.98555887
  O     18.93427013     11.04978872     -5.01564865
  O     12.37237753     16.98851532     -4.98794386
  O     18.92340113     17.02074082     -5.01352979
  O      3.22044698      2.16860736     -5.01483320
  O      3.22535877      5.15561492     -5.01428870
  O      3.22541749      8.14656077     -5.01556500
  O      3.21913862     14.03265332     -5.01720782
  O      3.22122825     11.05180552     -5.01514675
  O      3.19055941     16.98232112     -4.99293827
  O      9.80662525      2.17046481     -5.01076665
  O     16.39100653      2.17423529     -5.01482192
  O      9.80898175      5.15497252     -5.01507870
  O     16.39253663      5.14959923     -5.01645290
  O      9.91779221      8.13950322     -5.26757440
  O     16.39480123      8.14363750     -5.01513968
  O      9.93210408     14.03336686     -5.19536888
  O     16.50904620     14.03254601     -5.20296988
  O      9.94031990     11.07440600     -5.19705723
  O     16.52457610     11.06721736     -5.19701748
  O      9.89109481     16.97561302     -5.19278317
  O     16.48915131     16.99946280     -5.19553072
  O      1.25088733      0.71851802     -6.18411049
  O      1.24511498      3.66782190     -6.18930110
  O      1.25127594      6.62532430     -6.18717196
  O      1.25087407     12.55127117     -6.19242414
  O      1.24291261      9.58949157     -6.18831295
  O      1.24441005     15.50623474     -6.18118684
  O      7.75313584      0.71934483     -6.18526678
  O     14.41859379      0.72195880     -6.18694327
  O      7.83046563      3.64396538     -6.19141794
  O     14.34234357      3.65447390     -6.19246203
  O      7.75205245      6.62230557     -6.19408800
  O     14.42223371      6.61949175     -6.19834840
  O      7.75339785     12.55076102     -6.19457837
  O     14.33862573     12.56087697     -6.19719842
  O      7.82727799      9.60001139     -6.19093921
  O     14.41597948      9.59571130     -6.19876855
  O      7.75657171     15.49529594     -6.18846092
  O     14.33832771     15.52441085     -6.20041601
 Au     11.39704697      5.71024175      7.48722654
 Au     12.21798728     10.71388066      9.07977642
 Au      7.26908619     12.15842502      7.72196088
 Au     11.79796483      8.18293829      8.37494458
 Au      9.67170370     11.19623742      8.44949291
 Au      9.25059086      7.26856596      8.05072659
 Au      7.63518244      9.46579249      7.84287814
 Au      6.65598080      6.94053401      7.68520675
