439
Energy = -13269.72521156 au
 Ti      1.56877675      0.72809412      4.67705781
 Ti      1.58036311      3.69161235      4.68136409
 Ti      1.58182771      6.63666254      4.67151186
 Ti      1.59490243     12.54423752      4.69531627
 Ti      1.57781274      9.59066137      4.67174940
 Ti      1.60841717     15.49915260      4.69015028
 Ti      7.86869212      0.72759496      4.73670491
 Ti     14.19042695      0.72290057      4.74017014
 Ti      7.87445491      3.68672902      4.74240061
 Ti     14.20445340      3.66887393      4.73829618
 Ti      7.89308503      6.64251178      4.73996060
 Ti     14.16514638      6.63519024      4.78040849
 Ti      7.86769597     12.54729957      4.73546528
 Ti     14.19934984     12.53662980      4.76115750
 Ti      7.88718570      9.59714848      4.74259204
 Ti     14.18023265      9.59517253      4.73399722
 Ti      7.89559958     15.50007138      4.73710962
 Ti     14.23209171     15.49484212      4.73503180
 Ti      4.71317605      2.20396129      5.31593061
 Ti      4.72124792      5.16049553      5.29654085
 Ti      4.71994884      8.11399086      5.31110979
 Ti      4.72329756     14.01936542      5.31879713
 Ti      4.71909486     11.06486674      5.29605492
 Ti      4.72259212     16.96932671      5.29475692
 Ti     11.03685536      2.14530428      5.29106479
 Ti     17.32387638      2.16898951      5.16167663
 Ti     11.01676640      4.94288372      4.85084275
 Ti     17.30444784      5.10972576      5.13001969
 Ti     11.03398727      8.35846626      4.82626621
 Ti     17.32708387      8.05126134      5.12791417
 Ti     11.04978371     14.07744680      5.28775576
 Ti     17.33556311     14.02262833      5.11326726
 Ti     11.03296435     11.18207020      5.26225444
 Ti     17.34424756     11.02632350      5.09276611
 Ti     11.04725519     16.97157526      5.28799747
 Ti     17.32677723     16.94196874      5.14223878
  O      4.72951581      0.71865071      3.75471832
  O      4.72574068      3.69605448      3.75384793
  O      4.72852901      6.62527465      3.75335444
  O      4.72494007     12.53197943      3.75783913
  O      4.72781326      9.59881163      3.74966997
  O      4.66239698     15.50468911      3.75324333
  O     11.03024976      0.71814307      3.76507902
  O     17.25608248      0.71806862      3.66499087
  O     11.02172155      3.61211725      3.67113702
  O     17.18605626      3.70131805      3.66117996
  O     11.01881281      6.62288187      3.75683961
  O     17.25461439      6.62497712      3.65346640
  O     11.02175376     12.53522877      3.75475534
  O     17.26044444     12.53010461      3.61602141
  O     11.02484511      9.67640775      3.62680069
  O     17.33384028      9.60704856      3.61279144
  O     11.02103190     15.51097647      3.75792731
  O     17.18908682     15.50407254      3.66223164
  O      4.72985478      0.72271678      6.38367847
  O      4.72848905      3.69219579      6.38425042
  O      4.72951796      6.63204641      6.38327149
  O      4.72970250      9.59206260      6.38424300
  O      4.73087880     12.53073827      6.38626496
  O      4.72888181     15.50410806      6.38647858
  O     11.03149567      0.71041131      6.39779663
  O     17.41248374      0.71046218      6.23970756
  O     11.02993249      3.70580744      6.24425187
  O     17.41141320      3.68270557      6.23747163
  O     17.33536223      6.62391956      6.23756092
  O     11.03348771     12.59692744      6.39633599
  O     17.32781492     12.52095831      6.23317177
  O     11.03340651      9.59867627      6.16550594
  O     17.31992893      9.58356624      6.23137392
  O     11.03006778     15.51126712      6.39341436
  O     17.40943252     15.45764565      6.23448606
  O      2.76441312      2.20686308      5.12312506
  O      2.76552007      5.17806840      5.12661676
  O      2.76561052      8.11669223      5.12217680
  O      2.76105846     14.01477013      5.19581324
  O      2.76830758     11.03999925      5.12403261
  O      2.76438760     16.99965055      5.12988880
  O      9.06424620      2.20463829      5.12180283
  O     15.35883042      2.19900464      5.19868485
  O      9.10179343      5.19090294      5.12903560
  O     15.30752775      5.13268170      5.27070770
  O      9.12188342      8.10421534      5.12049799
  O     15.36146154      8.11454169      5.03244857
  O      9.07025436     14.01770810      5.12196900
  O     15.36164993     14.02456306      5.19328394
  O      9.06727273     11.09521514      5.12617784
  O     15.38137153     11.02718357      4.95983009
  O      9.06961574     16.99571647      5.12540228
  O     15.36110888     16.99704325      5.20375154
  O      0.38902185      2.21100305      4.96304683
  O      0.38305727      5.17477505      4.96951571
  O      0.38428468      8.11264611      4.97422066
  O      0.39160490     14.01683552      4.96142678
  O      0.39549899     11.09015171      5.03864068
  O      0.39161591     16.94209596      4.96567445
  O      6.68500033      2.21310695      5.12282764
  O     12.98752043      2.20092109      5.11771069
  O      6.69874422      5.18193513      5.12790841
  O     12.93017250      5.13409038      5.03509547
  O      6.70139845      8.11523781      5.12710703
  O     12.92640925      8.09752025      5.04004542
  O      6.68422715     14.02387390      5.12231157
  O     12.98090621     14.02920984      5.04911005
  O      6.69002190     11.03952186      5.12436604
  O     12.98049715     11.09424201      5.05118410
  O      6.68595352     16.94938421      5.12287592
  O     12.99015904     16.94881540      5.11747950
 Ti      1.57701346      2.20439847      1.49650221
 Ti      1.58074264      5.16299977      1.50477938
 Ti      1.59495747      8.11978865      1.47652422
 Ti      1.56960806     14.03102412      1.51420670
 Ti      1.58956630     11.08644931      1.48766132
 Ti      1.57730447     16.97178532      1.50236769
 Ti      7.87343549      2.20385909      1.51123879
 Ti     14.24949291      2.20911519      1.49490327
 Ti      7.87522958      5.15992469      1.51374315
 Ti     14.24424865      5.18177726      1.52476365
 Ti      7.88203503      8.11158158      1.50857145
 Ti     14.26130808      8.11860391      1.51344507
 Ti      7.88193239     14.02405464      1.50842355
 Ti     14.20527455     14.00670311      1.50694712
 Ti      7.87994607     11.06576919      1.51956185
 Ti     14.25797009     11.06654321      1.51784958
 Ti      7.88281356     16.97278225      1.51717216
 Ti     14.22264285     16.96789461      1.51073771
 Ti      4.72615913      0.72569922      1.93121962
 Ti      4.70961358      3.68285327      1.92745087
 Ti      4.72803261      6.63638324      1.93076207
 Ti      4.72098068     12.55320470      1.92771534
 Ti      4.72331238      9.60215526      1.92547796
 Ti      4.70631103     15.50117308      1.91824830
 Ti     11.04665747      0.72232496      1.93003905
 Ti     17.39354282      0.71898477      1.76964650
 Ti     11.07106155      3.65138308      1.60997198
 Ti     17.35557377      3.68399797      1.75698401
 Ti     11.04881752      6.62814780      1.83321726
 Ti     17.39931673      6.63631318      1.75841812
 Ti     11.03431858     12.54860538      1.92317642
 Ti     17.36133430     12.54990132      1.75391535
 Ti     11.09745652      9.61357746      1.62170050
 Ti     17.41186982      9.59546663      1.74435087
 Ti     11.05224375     15.50634034      1.91126042
 Ti     17.34340959     15.49765896      1.73579294
  O      1.65033823      0.72059147      2.89260025
  O      1.65593353      3.69244892      2.89529435
  O      1.65453354      6.62689084      2.88725100
  O      1.65419037     12.53561970      2.90510961
  O      1.65346148      9.60552114      2.88839945
  O      1.65921420     15.50688750      2.90011891
  O      7.87643008      0.72144677      2.95486320
  O     14.25887151      0.72539353      2.95770098
  O      7.87930708      3.69578450      2.96065675
  O     14.26239017      3.68919602      2.95458653
  O      7.88087008      6.62446530      2.95490759
  O     14.25900925      6.61665744      2.96382756
  O      7.87936105     12.53054969      2.95433701
  O     14.25988382     12.53754475      2.94978399
  O      7.88018156      9.59713021      2.95891994
  O     14.24188050      9.59096577      2.93350809
  O      7.87941309     15.50684631      2.95485701
  O     14.26315288     15.50923578      2.95350210
  O      5.96593519      2.20872717      1.68362212
  O      5.96381289      5.14482165      1.67991946
  O      5.97143807      8.11438469      1.68276061
  O      5.96684467     14.02480283      1.68526826
  O      5.96719334     11.08052593      1.68159430
  O      5.96003883     16.96392003      1.68473948
  O     12.29074398      2.20424538      1.69367205
  O     18.62496346      2.21321911      1.83646623
  O     12.28481968      5.14035524      1.75266317
  O     18.62297506      5.13695695      1.83145145
  O     12.28895784      8.10590432      1.75449391
  O     18.65585150      8.10660711      1.82776206
  O     12.28700914     14.02038433      1.76098182
  O     18.62000119     14.02722650      1.83010340
  O     12.28835801     11.08925649      1.68846795
  O     18.65081734     11.09574701      1.76416649
  O     12.28859135     16.99170827      1.76143072
  O     18.62033449     16.94963641      1.83594638
  O      3.46912548      2.20432801      1.68710525
  O      3.47426815      5.17477534      1.68442166
  O      3.47644193      8.11385466      1.68807306
  O      3.47160720     14.02041391      1.68619389
  O      3.48032110     11.08297783      1.68714635
  O      3.46984533     16.99562770      1.68482680
  O      9.78253835      2.20780186      1.68282407
  O     16.14026233      2.20125755      1.53138926
  O      9.79142105      5.14146245      1.68134156
  O     16.14351137      5.18381781      1.52700648
  O      9.79158946      8.11005331      1.68279956
  O     16.15007319      8.11324080      1.53167497
  O      9.78463031     14.02131081      1.68946115
  O     16.12903544     14.02017535      1.52786058
  O      9.78990604     11.04495941      1.67898342
  O     16.14610587     11.04044683      1.52828178
  O      9.78766620     16.99140901      1.69056801
  O     16.13664172     16.99526817      1.53419250
  O      1.42420883      0.72163986      0.31701387
  O      1.42678947      3.68498487      0.31666735
  O      1.42345973      6.62457276      0.31780808
  O      1.48883627     12.58124282      0.30986011
  O      1.43149376      9.60417728      0.31203768
  O      1.43086014     15.50668440      0.31459995
  O      7.87055971      0.72891538      0.38265705
  O     14.17827536      0.72291855      0.38932033
  O      7.87580842      3.68804194      0.37086160
  O     14.18088679      3.69666417      0.38866462
  O      7.87689351      6.62804498      0.37242789
  O     14.17830047      6.63025265      0.38597380
  O      7.87269546     12.53618734      0.38222054
  O     14.18104382     12.53626691      0.38575875
  O      7.87453839      9.59168232      0.37741891
  O     14.17765771      9.58906758      0.38407756
  O      7.87091506     15.50503692      0.38460133
  O     14.17735513     15.50518001      0.39002029
 Ti      1.21202878      0.71942337     -1.75752175
 Ti      1.21975963      3.67805472     -1.74110369
 Ti      1.22111716      6.63676035     -1.75533981
 Ti      1.22849042     12.55412208     -1.76041713
 Ti      1.22816291      9.59460746     -1.76515972
 Ti      1.22709747     15.51555674     -1.75892704
 Ti      7.81592619      0.70815691     -1.75287415
 Ti     14.38158119      0.71494161     -1.74474248
 Ti      7.80441092      3.67854378     -1.75257935
 Ti     14.37667801      3.68492053     -1.74500898
 Ti      7.81736303      6.63892084     -1.77625323
 Ti     14.39331679      6.64344134     -1.77549943
 Ti      7.83696388     12.55658465     -1.73913837
 Ti     14.41282109     12.55049553     -1.76073407
 Ti      7.83299588      9.59648136     -1.75768511
 Ti     14.39561168      9.59560913     -1.76648022
 Ti      7.81589198     15.51260085     -1.75790650
 Ti     14.40934091     15.51010728     -1.75630241
 Ti      4.52199207      2.19050397     -1.59161227
 Ti      4.52373824      5.15426536     -1.55230957
 Ti      4.52843688      8.11879900     -1.54955447
 Ti      4.52242957     14.02788300     -1.58772473
 Ti      4.53079138     11.07968169     -1.59126437
 Ti      4.51358792     17.00203362     -1.57907569
 Ti     11.08823270      2.18916184     -1.58733264
 Ti     17.65604673      2.19783817     -1.55248141
 Ti     11.08432363      5.15913192     -1.58883355
 Ti     17.66893902      5.16127300     -1.56595475
 Ti     11.08575948      8.12733818     -1.56890861
 Ti     17.68745030      8.12028738     -1.56060303
 Ti     11.11629116     14.03082356     -1.56258642
 Ti     17.68818458     14.03100085     -1.55812337
 Ti     11.09881007     11.08605676     -1.56207204
 Ti     17.69462097     11.07650451     -1.55489374
 Ti     11.10410228     16.98111534     -1.56242844
 Ti     17.67622831     16.99175535     -1.55176830
 Ti      1.30369970      2.19477698     -5.04772806
 Ti      1.31326858      5.12839073     -5.06048784
 Ti      1.30359635      8.09782824     -5.06656126
 Ti      1.29820627     14.00489532     -5.04681690
 Ti      1.30725828     11.07251972     -5.06745828
 Ti      1.18973891     16.97985252     -5.06112726
 Ti      7.88664190      2.17917051     -5.02767245
 Ti     14.46226053      2.18925818     -5.03217217
 Ti      7.90023798      5.11224747     -5.08518336
 Ti     14.48015323      5.11228181     -5.08395591
 Ti      7.89220098      8.10050586     -5.10119657
 Ti     14.47471673      8.10258285     -5.09878726
 Ti      7.90136460     14.00015542     -5.07435167
 Ti     14.48080143     14.05402072     -5.10816406
 Ti      7.90055760     11.08069982     -5.06893140
 Ti     14.49247153     11.08398312     -5.09432306
 Ti      7.79144382     16.97928002     -5.08718989
 Ti     14.46501303     16.99934982     -5.08067258
 Ti      4.50271475      0.67853286     -4.94553993
 Ti      4.59738169      3.66118026     -4.86025121
 Ti      4.58795066      6.64821928     -4.84268471
 Ti      4.60536881     12.54970432     -4.94445295
 Ti      4.55390161      9.59821891     -4.86271729
 Ti      4.49358231     15.51842562     -4.83720531
 Ti     11.07892972      0.67118858     -4.85049841
 Ti     17.67039963      0.74986841     -4.84503371
 Ti     11.18252030      3.65473495     -4.85592691
 Ti     17.76770073      3.67433079     -4.85125511
 Ti     11.15972404      6.63934225     -4.84267761
 Ti     17.67063633      6.63780116     -4.84905131
 Ti     11.17112152     12.54017942     -4.85760201
 Ti     17.76086193     12.53997692     -4.85494921
 Ti     11.16798488      9.57195295     -4.84076381
 Ti     17.76496603      9.55830793     -4.84740701
 Ti     11.15998408     15.52326962     -4.85603701
 Ti     17.68720513     15.52292102     -4.85539531
  O      4.50839834      0.71926992     -0.34010255
  O      4.51180337      3.65916205     -0.33721896
  O      4.51887021      6.64521145     -0.32875073
  O      4.51161413     12.54452216     -0.34718719
  O      4.51399177      9.60207771     -0.33527885
  O      4.50858683     15.51999133     -0.34330149
  O     11.09212688      0.71909360     -0.33393099
  O     17.67306178      0.71960864     -0.32624871
  O     11.08613898      3.66660444     -0.33859022
  O     17.67187301      3.67579707     -0.33129425
  O     11.08687446      6.64625509     -0.33282806
  O     17.67882754      6.64937818     -0.33545907
  O     11.09791677     12.54805853     -0.32934449
  O     17.68737917     12.54486418     -0.32962540
  O     11.08851999      9.59698890     -0.33086711
  O     17.68149603      9.59505575     -0.33078478
  O     11.10075215     15.51551655     -0.32912311
  O     17.68061647     15.52098124     -0.32755178
  O      2.52847458      2.19707998     -1.67679718
  O      2.52832193      5.15681189     -1.59992168
  O      2.53206906      8.11526864     -1.59912302
  O      2.53200488     14.03278665     -1.67630701
  O      2.53590867     11.07698556     -1.67230927
  O      2.52677125     17.00029427     -1.67740184
  O      9.11406052      2.19884860     -1.67864147
  O     15.66027481      2.20128230     -1.60682690
  O      9.11371744      5.15178411     -1.67959564
  O     15.68312353      5.15606203     -1.67034020
  O      9.11588751      8.11405535     -1.67463941
  O     15.69644398      8.11745240     -1.67484631
  O      9.12073918     14.04147867     -1.59814875
  O     15.69885201     14.03604208     -1.59316166
  O      9.11817370     11.07935990     -1.59758737
  O     15.69852913     11.07306338     -1.59923402
  O      9.11734449     16.99008436     -1.59691019
  O     15.68684695     16.99659036     -1.59685671
  O     -0.10072615      2.20175982     -1.60244580
  O     -0.09579378      5.15240906     -1.67670630
  O     -0.07514011      8.11249668     -1.67802483
  O     -0.07997509     14.03686181     -1.67843142
  O     -0.06251463     11.07923762     -1.67655237
  O     -0.08890155     16.99510939     -1.61109102
  O      6.53071700      2.19032508     -1.67172479
  O     13.06451304      2.19708269     -1.67898259
  O      6.52627547      5.15988572     -1.66892877
  O     13.06317794      5.16288646     -1.67592260
  O      6.53688575      8.12127107     -1.67584601
  O     13.06545909      8.11712948     -1.67680757
  O      6.53388118     14.03021317     -1.67708590
  O     13.11354058     14.03292781     -1.68743175
  O      6.54354296     11.07890128     -1.68159552
  O     13.07787612     11.07697217     -1.68239403
  O      6.51999909     16.98999569     -1.67025951
  O     13.08496487     16.98988190     -1.68200143
  O      4.53786602      0.70758103     -2.98954359
  O      4.54403684      3.67864201     -2.95059834
  O      4.54353763      6.63931244     -2.94590286
  O      4.54931403     12.55001857     -3.00414110
  O      4.54615327      9.59563606     -2.95107735
  O      4.54267882     15.51674688     -2.94921836
  O     11.04506561      0.70543087     -2.94757649
  O     17.62852426      0.71755324     -2.94208397
  O     11.12606359      3.67523189     -2.95208329
  O     17.64228330      3.67077609     -2.95163973
  O     11.04922967      6.64422526     -2.95127756
  O     17.63499851      6.63701585     -2.94918907
  O     11.04627626     12.55632668     -2.94631192
  O     17.63298724     12.55424168     -2.94694517
  O     11.04425365      9.59476593     -2.94705195
  O     17.71067856      9.59785626     -2.94637882
  O     11.11407381     15.51567955     -2.94738607
  O     17.62761844     15.51867240     -2.94770046
  O      1.16730567      0.72032719     -3.64614811
  O      1.24142946      3.67323106     -3.64559693
  O      1.25422791      6.63149921     -3.64836590
  O      1.24573761     12.55074781     -3.65661944
  O      1.24698371      9.58996293     -3.65482874
  O      1.24079256     15.51415465     -3.64850943
  O      7.84755798      0.65822843     -3.65317225
  O     14.42834009      0.70876926     -3.65114366
  O      7.75772666      3.67282632     -3.65992126
  O     14.41503644      3.67239459     -3.65396500
  O      7.84214381      6.64068554     -3.67133771
  O     14.41796467      6.63181367     -3.66446899
  O      7.92675950     12.55284276     -3.66165811
  O     14.51267915     12.55925359     -3.66583031
  O      7.92393007      9.59868971     -3.66747811
  O     14.42720808      9.60368487     -3.66342736
  O      7.85000805     15.50868029     -3.66170648
  O     14.51404225     15.51566398     -3.66595195
  O      5.75671982      2.16324301     -5.01435958
  O      5.75975303      5.15448081     -5.01530183
  O      5.76556015      8.14428322     -5.01539114
  O      5.75653567     14.03557632     -5.01636649
  O      5.78411909     11.08130282     -5.09072135
  O      5.76834411     16.97608362     -5.06744863
  O     12.34626893      2.16631666     -5.01136403
  O     18.92693223      2.16872457     -5.01182269
  O     12.35319463      5.15333855     -5.01211275
  O     18.92479343      5.15702773     -5.01288125
  O     12.38480073      8.10072512     -4.98445473
  O     18.93235633      8.05623231     -5.01259674
  O     12.35286853     14.03080392     -5.00936198
  O     18.92498483     14.03379252     -5.01470270
  O     12.37642473     11.06886562     -4.98555887
  O     18.93427013     11.04978872     -5.01564865
  O     12.37237753     16.98851532     -4.98794386
  O     18.92340113     17.02074082     -5.01352979
  O      3.22044698      2.16860736     -5.01483320
  O      3.22535877      5.15561492     -5.01428870
  O      3.22541749      8.14656077     -5.01556500
  O      3.21913862     14.03265332     -5.01720782
  O      3.22122825     11.05180552     -5.01514675
  O      3.19055941     16.98232112     -4.99293827
  O      9.80662525      2.17046481     -5.01076665
  O     16.39100653      2.17423529     -5.01482192
  O      9.80898175      5.15497252     -5.01507870
  O     16.39253663      5.14959923     -5.01645290
  O      9.91779221      8.13950322     -5.26757440
  O     16.39480123      8.14363750     -5.01513968
  O      9.93210408     14.03336686     -5.19536888
  O     16.50904620     14.03254601     -5.20296988
  O      9.94031990     11.07440600     -5.19705723
  O     16.52457610     11.06721736     -5.19701748
  O      9.89109481     16.97561302     -5.19278317
  O     16.48915131     16.99946280     -5.19553072
  O      1.25088733      0.71851802     -6.18411049
  O      1.24511498      3.66782190     -6.18930110
  O      1.25127594      6.62532430     -6.18717196
  O      1.25087407     12.55127117     -6.19242414
  O      1.24291261      9.58949157     -6.18831295
  O      1.24441005     15.50623474     -6.18118684
  O      7.75313584      0.71934483     -6.18526678
  O     14.41859379      0.72195880     -6.18694327
  O      7.83046563      3.64396538     -6.19141794
  O     14.34234357      3.65447390     -6.19246203
  O      7.75205245      6.62230557     -6.19408800
  O     14.42223371      6.61949175     -6.19834840
  O      7.75339785     12.55076102     -6.19457837
  O     14.33862573     12.56087697     -6.19719842
  O      7.82727799      9.60001139     -6.19093921
  O     14.41597948      9.59571130     -6.19876855
  O      7.75657171     15.49529594     -6.18846092
  O     14.33832771     15.52441085     -6.20041601
 Au     10.53907874     10.33586480      9.21690500
 Au     15.01653428      9.53008614      7.72996124
 Au     12.48901651      8.56722718      8.33403986
 Au     11.70314581      6.03026577      7.47149538
 Au     14.52251789      6.82684561      7.70477906
 Au      9.82980233      7.80972766      8.22144785
 Au     12.92431674     11.36006149      8.35941320
 Au     15.30724520     12.26999418      7.64379842
