439
Energy = -13269.71816293 au
 Ti      1.57174657      0.72386968      4.70472033
 Ti      1.57029258      3.68463161      4.68845778
 Ti      1.59044655      6.63063690      4.67602637
 Ti      1.57528552     12.52964992      4.72170789
 Ti      1.57800333      9.58105018      4.67682727
 Ti      1.59854559     15.49365321      4.71862655
 Ti      7.86990186      0.72180439      4.73462816
 Ti     14.19102020      0.72263528      4.74431662
 Ti      7.87300868      3.66928316      4.73706024
 Ti     14.19600048      3.66624797      4.74423163
 Ti      7.93060218      6.62658029      4.80673860
 Ti     14.19864058      6.62556945      4.74145002
 Ti      7.86619418     12.54352577      4.73686128
 Ti     14.20903263     12.54216111      4.72648343
 Ti      7.87903829      9.58464292      4.75142504
 Ti     14.12350001      9.60468488      4.76671572
 Ti      7.88942695     15.49660329      4.73473449
 Ti     14.23436394     15.49808721      4.73436467
 Ti      4.71398005      2.19023154      5.31622146
 Ti      4.72575386      5.13444282      5.28929328
 Ti      4.72718199      8.09278215      5.29115425
 Ti      4.72107617     14.00805552      5.32089146
 Ti      4.71843447     11.04051137      5.30936299
 Ti      4.72552960     16.95904395      5.29560421
 Ti     11.02903853      2.13559039      5.29717609
 Ti     17.33006277      2.17920823      5.17361219
 Ti     11.03863673      4.89763805      4.82772271
 Ti     17.30813237      5.12473369      5.14453738
 Ti     11.02415544      8.34750726      4.78169213
 Ti     17.31522738      8.06456838      5.13404923
 Ti     11.04244332     14.07336168      5.28154548
 Ti     17.33089757     14.00887474      5.17263502
 Ti     10.99732864     11.16447314      5.26973285
 Ti     17.30733159     11.02491069      5.17876701
 Ti     11.04315527     16.96552159      5.28640370
 Ti     17.33101124     16.95307692      5.13664183
  O      4.72967959      0.71988036      3.75723093
  O      4.72844909      3.69469240      3.75400640
  O      4.72200817      6.61938793      3.75229156
  O      4.72833767     12.52694353      3.76100421
  O      4.72302093      9.60012893      3.75122064
  O      4.72396653     15.50812008      3.75508106
  O     11.03087006      0.71485277      3.76673714
  O     17.26273699      0.71809242      3.66559524
  O     11.02777381      3.55636392      3.67185730
  O     17.25262429      3.69929389      3.66615832
  O     10.95341346      6.61182210      3.75472188
  O     17.18177606      6.62178520      3.65987320
  O     10.95524227     12.53123284      3.75746800
  O     17.18680564     12.52488649      3.66775123
  O     10.95690036      9.68451250      3.61523567
  O     17.25570312      9.60409441      3.66408709
  O     11.02210274     15.50930101      3.75805983
  O     17.19131238     15.50760550      3.66178570
  O      4.73069711      0.71851706      6.38658588
  O      4.72991351      3.68656697      6.38799178
  O      4.80254426      6.62034234      6.38643181
  O      4.73463877      9.54925641      6.38413141
  O      4.73147419     12.52291216      6.38774497
  O      4.72900649     15.49807918      6.38707869
  O     11.03229184      0.70472126      6.40090869
  O     17.40703332      0.71429313      6.24141638
  O     11.03211245      3.70898586      6.23966177
  O     17.40717230      3.68728022      6.24337257
  O     17.33992139      6.62087127      6.23743707
  O     11.03826168     12.59288020      6.39656661
  O     17.40548331     12.52242648      6.24156927
  O     11.03867336      9.54499479      6.15299759
  O     17.33282098      9.54096896      6.24552291
  O     11.03022091     15.50676270      6.39228222
  O     17.40533815     15.49147572      6.24126911
  O      2.76834929      2.20614458      5.12248593
  O      2.76834693      5.14057746      5.13264255
  O      2.77084185      8.10701487      5.12729500
  O      2.76193533     14.01156253      5.19707901
  O      2.77042916     11.03621717      5.12880949
  O      2.77253259     16.99609415      5.13028904
  O      9.06684067      2.19420942      5.12558982
  O     15.35785841      2.20415699      5.19474179
  O      9.12404584      5.13134561      5.11512338
  O     15.29743114      5.12556790      5.27640226
  O      9.12283486      8.10413130      5.11072998
  O     15.30628360      8.11074311      5.19583211
  O      9.06884175     14.01893790      5.12451527
  O     15.35539214     14.01639540      5.20617735
  O      9.05597663     11.09547054      5.19732723
  O     15.31034062     11.03723118      5.20274648
  O      9.07139070     16.98725998      5.12573016
  O     15.35865472     16.99851935      5.20259765
  O      0.39511451      2.20754022      5.03501002
  O      0.38391314      5.18499453      4.96925484
  O      0.38299938      8.10302058      4.96706320
  O      0.38639054     14.01522038      4.96346601
  O      0.38818040     11.03597727      5.03799782
  O      0.39744611     16.94517948      5.03598467
  O      6.68398338      2.20417347      5.12347031
  O     12.98705702      2.19970693      5.12023319
  O      6.69956614      5.12539927      5.11953035
  O     12.92151805      5.18264932      5.03748924
  O      6.69489919      8.11715961      5.04413935
  O     12.90739008      8.04962668      4.96080357
  O      6.68584632     14.01853698      5.12472454
  O     12.98057908     14.01909878      5.04792006
  O      6.68593041     11.03622698      5.12372577
  O     12.92609051     11.10271478      4.96896334
  O      6.68847281     16.94975090      5.12610497
  O     12.99049116     16.94522350      5.11722403
 Ti      1.59014843      2.20434640      1.49863037
 Ti      1.58098295      5.16450325      1.50606655
 Ti      1.58013781      8.12099589      1.48420111
 Ti      1.57069835     14.03504504      1.52733810
 Ti      1.57994774     11.08724262      1.50385662
 Ti      1.58081620     16.97635514      1.51943094
 Ti      7.87501362      2.21189618      1.50463686
 Ti     14.25943057      2.20478368      1.50532673
 Ti      7.87327363      5.16933073      1.53526661
 Ti     14.24540395      5.16671176      1.51279870
 Ti      7.87342926      8.08754389      1.54156096
 Ti     14.24792419      8.11520805      1.51654027
 Ti      7.88278516     14.01630958      1.50772639
 Ti     14.20279226     14.01481671      1.48671688
 Ti      7.87415712     11.03872096      1.50914715
 Ti     14.25579442     11.05772319      1.51521337
 Ti      7.88301919     16.97497221      1.51531090
 Ti     14.22570794     16.97425962      1.51577199
 Ti      4.72461715      0.72612463      1.93448341
 Ti      4.72295415      3.68103254      1.92650791
 Ti      4.71420702      6.63327349      1.92737015
 Ti      4.72475324     12.54801896      1.93852764
 Ti      4.71240278      9.59588927      1.92508766
 Ti      4.71902741     15.50199918      1.92242729
 Ti     11.04492137      0.72089612      1.93168485
 Ti     17.39647655      0.71800399      1.77176114
 Ti     11.07772041      3.64372814      1.59944814
 Ti     17.39908993      3.68180012      1.77042026
 Ti     11.03354022      6.62227535      1.83500775
 Ti     17.35781127      6.63274162      1.76355448
 Ti     11.02559871     12.54581646      1.92776409
 Ti     17.34758865     12.55057987      1.80604937
 Ti     11.08608747      9.61299478      1.61401199
 Ti     17.40466464      9.59765173      1.78377831
 Ti     11.05310110     15.50579499      1.90858583
 Ti     17.34198414     15.49594339      1.76106328
  O      1.64835425      0.72215388      2.91706413
  O      1.64995907      3.68982969      2.90065453
  O      1.65715238      6.62718345      2.88951134
  O      1.65112664     12.53026783      2.94243160
  O      1.65270753      9.60250071      2.88801415
  O      1.65424375     15.50926279      2.93644266
  O      7.87845888      0.72089459      2.95480679
  O     14.25702747      0.72218615      2.95937810
  O      7.87857358      3.69146171      2.95375324
  O     14.25955368      3.69268599      2.96024137
  O      7.88184004      6.61788611      2.96868808
  O     14.26386981      6.61594475      2.95284244
  O      7.87907928     12.52525812      2.95588316
  O     14.26491395     12.53134106      2.94644419
  O      7.88350788      9.60096390      2.96153750
  O     14.25682199      9.59870783      2.96296859
  O      7.87866587     15.50620357      2.95381530
  O     14.26303842     15.50836397      2.95350649
  O      5.96814320      2.20685144      1.68289137
  O      5.95669143      5.16396534      1.67875758
  O      5.95485908      8.11126621      1.68513270
  O      5.96585623     14.02190242      1.68209446
  O      5.96302177     11.04771287      1.68093489
  O      5.96412222     16.98809991      1.68276008
  O     12.29449463      2.20186687      1.69255715
  O     18.64318951      2.20550592      1.83402158
  O     12.28622667      5.13846225      1.75731643
  O     18.62028899      5.18042155      1.83461598
  O     12.28851316      8.10647738      1.76078086
  O     18.62756892      8.10471870      1.83474344
  O     12.28708265     14.01686198      1.76360684
  O     18.61460982     14.02225401      1.83871723
  O     12.28739559     11.08558617      1.69633947
  O     18.62711444     11.09458441      1.83484138
  O     12.29047192     16.99070862      1.76086781
  O     18.62615270     16.94560504      1.83467748
  O      3.47146084      2.20524725      1.68803600
  O      3.47116709      5.14075747      1.68400472
  O      3.46699760      8.11161608      1.68527808
  O      3.47042708     14.01903230      1.75167779
  O      3.47022826     11.09144600      1.68516201
  O      3.47357843     16.98977471      1.69119057
  O      9.78597137      2.20639153      1.68139538
  O     16.14366860      2.20508936      1.59467265
  O      9.79692126      5.13205220      1.68112699
  O     16.14118801      5.13616532      1.52774740
  O      9.79383466      8.10803095      1.68026884
  O     16.13562289      8.11820625      1.58990457
  O      9.78496990     14.02241520      1.68731168
  O     16.12055376     14.01925599      1.53194550
  O      9.78641612     11.04504995      1.67126748
  O     16.14196702     11.04245763      1.52854936
  O      9.79100306     16.98983813      1.69136472
  O     16.13718975     16.99756924      1.53384187
  O      1.42729437      0.71756851      0.32225424
  O      1.42490838      3.68632372      0.31924264
  O      1.42417101      6.62744974      0.31975144
  O      1.43819706     12.58145052      0.32318839
  O      1.42476632      9.60889393      0.31896702
  O      1.48848433     15.50307657      0.32579251
  O      7.87286418      0.72900334      0.38041871
  O     14.18125033      0.72624831      0.39138084
  O      7.87481313      3.69256780      0.37397460
  O     14.18038186      3.68992678      0.38703169
  O      7.87745777      6.62575544      0.38033470
  O     14.18185574      6.63112529      0.38765872
  O      7.87085553     12.53032500      0.38465509
  O     14.17995909     12.53152188      0.38677175
  O      7.87405613      9.55476375      0.38185428
  O     14.17769835      9.58396344      0.38738616
  O      7.87032751     15.50374359      0.38602496
  O     14.17672375     15.50826671      0.38779346
 Ti      1.21202878      0.71942337     -1.75752175
 Ti      1.21975963      3.67805472     -1.74110369
 Ti      1.22111716      6.63676035     -1.75533981
 Ti      1.22849042     12.55412208     -1.76041713
 Ti      1.22816291      9.59460746     -1.76515972
 Ti      1.22709747     15.51555674     -1.75892704
 Ti      7.81592619      0.70815691     -1.75287415
 Ti     14.38158119      0.71494161     -1.74474248
 Ti      7.80441092      3.67854378     -1.75257935
 Ti     14.37667801      3.68492053     -1.74500898
 Ti      7.81736303      6.63892084     -1.77625323
 Ti     14.39331679      6.64344134     -1.77549943
 Ti      7.83696388     12.55658465     -1.73913837
 Ti     14.41282109     12.55049553     -1.76073407
 Ti      7.83299588      9.59648136     -1.75768511
 Ti     14.39561168      9.59560913     -1.76648022
 Ti      7.81589198     15.51260085     -1.75790650
 Ti     14.40934091     15.51010728     -1.75630241
 Ti      4.52199207      2.19050397     -1.59161227
 Ti      4.52373824      5.15426536     -1.55230957
 Ti      4.52843688      8.11879900     -1.54955447
 Ti      4.52242957     14.02788300     -1.58772473
 Ti      4.53079138     11.07968169     -1.59126437
 Ti      4.51358792     17.00203362     -1.57907569
 Ti     11.08823270      2.18916184     -1.58733264
 Ti     17.65604673      2.19783817     -1.55248141
 Ti     11.08432363      5.15913192     -1.58883355
 Ti     17.66893902      5.16127300     -1.56595475
 Ti     11.08575948      8.12733818     -1.56890861
 Ti     17.68745030      8.12028738     -1.56060303
 Ti     11.11629116     14.03082356     -1.56258642
 Ti     17.68818458     14.03100085     -1.55812337
 Ti     11.09881007     11.08605676     -1.56207204
 Ti     17.69462097     11.07650451     -1.55489374
 Ti     11.10410228     16.98111534     -1.56242844
 Ti     17.67622831     16.99175535     -1.55176830
 Ti      1.30369970      2.19477698     -5.04772806
 Ti      1.31326858      5.12839073     -5.06048784
 Ti      1.30359635      8.09782824     -5.06656126
 Ti      1.29820627     14.00489532     -5.04681690
 Ti      1.30725828     11.07251972     -5.06745828
 Ti      1.18973891     16.97985252     -5.06112726
 Ti      7.88664190      2.17917051     -5.02767245
 Ti     14.46226053      2.18925818     -5.03217217
 Ti      7.90023798      5.11224747     -5.08518336
 Ti     14.48015323      5.11228181     -5.08395591
 Ti      7.89220098      8.10050586     -5.10119657
 Ti     14.47471673      8.10258285     -5.09878726
 Ti      7.90136460     14.00015542     -5.07435167
 Ti     14.48080143     14.05402072     -5.10816406
 Ti      7.90055760     11.08069982     -5.06893140
 Ti     14.49247153     11.08398312     -5.09432306
 Ti      7.79144382     16.97928002     -5.08718989
 Ti     14.46501303     16.99934982     -5.08067258
 Ti      4.50271475      0.67853286     -4.94553993
 Ti      4.59738169      3.66118026     -4.86025121
 Ti      4.58795066      6.64821928     -4.84268471
 Ti      4.60536881     12.54970432     -4.94445295
 Ti      4.55390161      9.59821891     -4.86271729
 Ti      4.49358231     15.51842562     -4.83720531
 Ti     11.07892972      0.67118858     -4.85049841
 Ti     17.67039963      0.74986841     -4.84503371
 Ti     11.18252030      3.65473495     -4.85592691
 Ti     17.76770073      3.67433079     -4.85125511
 Ti     11.15972404      6.63934225     -4.84267761
 Ti     17.67063633      6.63780116     -4.84905131
 Ti     11.17112152     12.54017942     -4.85760201
 Ti     17.76086193     12.53997692     -4.85494921
 Ti     11.16798488      9.57195295     -4.84076381
 Ti     17.76496603      9.55830793     -4.84740701
 Ti     11.15998408     15.52326962     -4.85603701
 Ti     17.68720513     15.52292102     -4.85539531
  O      4.50839834      0.71926992     -0.34010255
  O      4.51180337      3.65916205     -0.33721896
  O      4.51887021      6.64521145     -0.32875073
  O      4.51161413     12.54452216     -0.34718719
  O      4.51399177      9.60207771     -0.33527885
  O      4.50858683     15.51999133     -0.34330149
  O     11.09212688      0.71909360     -0.33393099
  O     17.67306178      0.71960864     -0.32624871
  O     11.08613898      3.66660444     -0.33859022
  O     17.67187301      3.67579707     -0.33129425
  O     11.08687446      6.64625509     -0.33282806
  O     17.67882754      6.64937818     -0.33545907
  O     11.09791677     12.54805853     -0.32934449
  O     17.68737917     12.54486418     -0.32962540
  O     11.08851999      9.59698890     -0.33086711
  O     17.68149603      9.59505575     -0.33078478
  O     11.10075215     15.51551655     -0.32912311
  O     17.68061647     15.52098124     -0.32755178
  O      2.52847458      2.19707998     -1.67679718
  O      2.52832193      5.15681189     -1.59992168
  O      2.53206906      8.11526864     -1.59912302
  O      2.53200488     14.03278665     -1.67630701
  O      2.53590867     11.07698556     -1.67230927
  O      2.52677125     17.00029427     -1.67740184
  O      9.11406052      2.19884860     -1.67864147
  O     15.66027481      2.20128230     -1.60682690
  O      9.11371744      5.15178411     -1.67959564
  O     15.68312353      5.15606203     -1.67034020
  O      9.11588751      8.11405535     -1.67463941
  O     15.69644398      8.11745240     -1.67484631
  O      9.12073918     14.04147867     -1.59814875
  O     15.69885201     14.03604208     -1.59316166
  O      9.11817370     11.07935990     -1.59758737
  O     15.69852913     11.07306338     -1.59923402
  O      9.11734449     16.99008436     -1.59691019
  O     15.68684695     16.99659036     -1.59685671
  O     -0.10072615      2.20175982     -1.60244580
  O     -0.09579378      5.15240906     -1.67670630
  O     -0.07514011      8.11249668     -1.67802483
  O     -0.07997509     14.03686181     -1.67843142
  O     -0.06251463     11.07923762     -1.67655237
  O     -0.08890155     16.99510939     -1.61109102
  O      6.53071700      2.19032508     -1.67172479
  O     13.06451304      2.19708269     -1.67898259
  O      6.52627547      5.15988572     -1.66892877
  O     13.06317794      5.16288646     -1.67592260
  O      6.53688575      8.12127107     -1.67584601
  O     13.06545909      8.11712948     -1.67680757
  O      6.53388118     14.03021317     -1.67708590
  O     13.11354058     14.03292781     -1.68743175
  O      6.54354296     11.07890128     -1.68159552
  O     13.07787612     11.07697217     -1.68239403
  O      6.51999909     16.98999569     -1.67025951
  O     13.08496487     16.98988190     -1.68200143
  O      4.53786602      0.70758103     -2.98954359
  O      4.54403684      3.67864201     -2.95059834
  O      4.54353763      6.63931244     -2.94590286
  O      4.54931403     12.55001857     -3.00414110
  O      4.54615327      9.59563606     -2.95107735
  O      4.54267882     15.51674688     -2.94921836
  O     11.04506561      0.70543087     -2.94757649
  O     17.62852426      0.71755324     -2.94208397
  O     11.12606359      3.67523189     -2.95208329
  O     17.64228330      3.67077609     -2.95163973
  O     11.04922967      6.64422526     -2.95127756
  O     17.63499851      6.63701585     -2.94918907
  O     11.04627626     12.55632668     -2.94631192
  O     17.63298724     12.55424168     -2.94694517
  O     11.04425365      9.59476593     -2.94705195
  O     17.71067856      9.59785626     -2.94637882
  O     11.11407381     15.51567955     -2.94738607
  O     17.62761844     15.51867240     -2.94770046
  O      1.16730567      0.72032719     -3.64614811
  O      1.24142946      3.67323106     -3.64559693
  O      1.25422791      6.63149921     -3.64836590
  O      1.24573761     12.55074781     -3.65661944
  O      1.24698371      9.58996293     -3.65482874
  O      1.24079256     15.51415465     -3.64850943
  O      7.84755798      0.65822843     -3.65317225
  O     14.42834009      0.70876926     -3.65114366
  O      7.75772666      3.67282632     -3.65992126
  O     14.41503644      3.67239459     -3.65396500
  O      7.84214381      6.64068554     -3.67133771
  O     14.41796467      6.63181367     -3.66446899
  O      7.92675950     12.55284276     -3.66165811
  O     14.51267915     12.55925359     -3.66583031
  O      7.92393007      9.59868971     -3.66747811
  O     14.42720808      9.60368487     -3.66342736
  O      7.85000805     15.50868029     -3.66170648
  O     14.51404225     15.51566398     -3.66595195
  O      5.75671982      2.16324301     -5.01435958
  O      5.75975303      5.15448081     -5.01530183
  O      5.76556015      8.14428322     -5.01539114
  O      5.75653567     14.03557632     -5.01636649
  O      5.78411909     11.08130282     -5.09072135
  O      5.76834411     16.97608362     -5.06744863
  O     12.34626893      2.16631666     -5.01136403
  O     18.92693223      2.16872457     -5.01182269
  O     12.35319463      5.15333855     -5.01211275
  O     18.92479343      5.15702773     -5.01288125
  O     12.38480073      8.10072512     -4.98445473
  O     18.93235633      8.05623231     -5.01259674
  O     12.35286853     14.03080392     -5.00936198
  O     18.92498483     14.03379252     -5.01470270
  O     12.37642473     11.06886562     -4.98555887
  O     18.93427013     11.04978872     -5.01564865
  O     12.37237753     16.98851532     -4.98794386
  O     18.92340113     17.02074082     -5.01352979
  O      3.22044698      2.16860736     -5.01483320
  O      3.22535877      5.15561492     -5.01428870
  O      3.22541749      8.14656077     -5.01556500
  O      3.21913862     14.03265332     -5.01720782
  O      3.22122825     11.05180552     -5.01514675
  O      3.19055941     16.98232112     -4.99293827
  O      9.80662525      2.17046481     -5.01076665
  O     16.39100653      2.17423529     -5.01482192
  O      9.80898175      5.15497252     -5.01507870
  O     16.39253663      5.14959923     -5.01645290
  O      9.91779221      8.13950322     -5.26757440
  O     16.39480123      8.14363750     -5.01513968
  O      9.93210408     14.03336686     -5.19536888
  O     16.50904620     14.03254601     -5.20296988
  O      9.94031990     11.07440600     -5.19705723
  O     16.52457610     11.06721736     -5.19701748
  O      9.89109481     16.97561302     -5.19278317
  O     16.48915131     16.99946280     -5.19553072
  O      1.25088733      0.71851802     -6.18411049
  O      1.24511498      3.66782190     -6.18930110
  O      1.25127594      6.62532430     -6.18717196
  O      1.25087407     12.55127117     -6.19242414
  O      1.24291261      9.58949157     -6.18831295
  O      1.24441005     15.50623474     -6.18118684
  O      7.75313584      0.71934483     -6.18526678
  O     14.41859379      0.72195880     -6.18694327
  O      7.83046563      3.64396538     -6.19141794
  O     14.34234357      3.65447390     -6.19246203
  O      7.75205245      6.62230557     -6.19408800
  O     14.42223371      6.61949175     -6.19834840
  O      7.75339785     12.55076102     -6.19457837
  O     14.33862573     12.56087697     -6.19719842
  O      7.82727799      9.60001139     -6.19093921
  O     14.41597948      9.59571130     -6.19876855
  O      7.75657171     15.49529594     -6.18846092
  O     14.33832771     15.52441085     -6.20041601
 Au     10.38378979     10.97689853      8.98536788
 Au     12.96743186      6.31758789      7.73278991
 Au     14.48717948      8.80830777      7.67558132
 Au     11.81238005      8.66899485      8.48655107
 Au      8.93968361      8.81171678      8.30211140
 Au     10.25201737      6.40747420      7.71685375
 Au      7.52620375      6.59357566      7.62219806
 Au     13.14008434     11.08499295      8.17962693
