439
Energy = -13269.72687157 au
 Ti      1.56820486      0.72252908      4.68671994
 Ti      1.57367964      3.68092986      4.67957346
 Ti      1.60577912      6.63115020      4.67163430
 Ti      1.58175328     12.53544486      4.68198820
 Ti      1.59282917      9.58164284      4.66844165
 Ti      1.61337309     15.49277351      4.67733250
 Ti      7.86979883      0.71087204      4.73127603
 Ti     14.18635310      0.72172838      4.74046410
 Ti      7.89267152      3.67928818      4.89648013
 Ti     14.20048318      3.66128340      4.73264953
 Ti      7.89943810      6.64032193      4.72993332
 Ti     14.17301743      6.62975689      4.79220747
 Ti      7.86368488     12.54336903      4.73241214
 Ti     14.18601461     12.55205162      4.72062995
 Ti      7.88653781      9.59449435      4.72903676
 Ti     14.19876976      9.60709161      4.75980100
 Ti      7.88633819     15.48983451      4.72437656
 Ti     14.23842962     15.49932843      4.73507218
 Ti      4.71474271      2.19246313      5.25885915
 Ti      4.73120637      5.16143330      5.23709844
 Ti      4.73306332      8.11610802      5.28929236
 Ti      4.72147435     14.01119232      5.32555300
 Ti      4.72094629     11.05737812      5.29971822
 Ti      4.72499303     16.95393801      5.28125793
 Ti     11.03465024      2.12494672      5.29185452
 Ti     17.32611800      2.14249773      5.15290101
 Ti     11.03511371      4.89632661      4.82274418
 Ti     17.33663782      5.08229881      5.10373393
 Ti     11.04277661      8.33774755      4.80470021
 Ti     17.33665786      8.02209397      5.05412847
 Ti     11.03941391     14.07804237      5.28143756
 Ti     17.33005569     14.00714283      5.13279596
 Ti     11.02564751     11.17805268      5.28661797
 Ti     17.33505451     11.08455625      5.11860810
 Ti     11.03991919     16.96269707      5.28669583
 Ti     17.33023244     16.93013790      5.13939377
  O      4.72746257      0.71761805      3.74145649
  O      4.71913346      3.69773673      3.69473200
  O      4.71908963      6.68125042      3.74022639
  O      4.72428179     12.53353600      3.75796484
  O      4.72608400      9.60252699      3.74902935
  O      4.66035365     15.50553280      3.75239526
  O     11.03139651      0.71239377      3.76558419
  O     17.25856578      0.72448007      3.66665786
  O     11.02558699      3.55650602      3.66925811
  O     17.26181848      3.69732780      3.62622956
  O     11.02849031      6.63348212      3.76570782
  O     17.25823901      6.63059463      3.61136882
  O     11.02165734     12.53344003      3.75810546
  O     17.25146618     12.52486049      3.66392174
  O     11.02686420      9.68365927      3.66675454
  O     17.26005403      9.60382295      3.61172517
  O     11.02338055     15.50819350      3.75789588
  O     17.18520824     15.50729137      3.66372453
  O      4.73313972      0.73004644      6.33633507
  O      4.80225883      3.69394341      6.31989332
  O      4.73257800      6.61996881      6.33037422
  O      4.72852465      9.59128929      6.38141189
  O      4.72963050     12.52875379      6.38965956
  O      4.72749672     15.50259580      6.38699520
  O     11.03251429      0.70205960      6.40100761
  O     17.41072093      0.70775979      6.24059539
  O     11.03366452      3.70343392      6.23131410
  O     17.40483116      3.68389683      6.22862378
  O     17.32519083      6.61943411      6.22099423
  O     11.03828199     12.59604230      6.40163192
  O     17.41135658     12.52053132      6.23414082
  O     11.02522753      9.60291234      6.23846145
  O     17.27443016      9.54073099      6.23565771
  O     11.03204343     15.50645898      6.39329304
  O     17.41265695     15.46275171      6.23647638
  O      2.76723953      2.20854907      5.11864118
  O      2.76897148      5.13244705      5.12335418
  O      2.76726293      8.11069929      5.12635097
  O      2.75582227     14.00918224      5.19414233
  O      2.76445466     11.04428579      5.12536194
  O      2.76371174     17.00008327      5.12905284
  O      9.07267275      2.14358747      5.11898573
  O     15.36086597      2.20180958      5.19685779
  O      9.13614659      5.20072708      5.04013234
  O     15.35631565      5.11926874      5.11491290
  O      9.12693268      8.11292086      5.11512218
  O     15.35574045      8.11028471      5.03206634
  O      9.07031417     14.01341225      5.12168639
  O     15.35882809     14.01486448      5.20280767
  O      9.06834384     11.09526331      5.12673137
  O     15.36042706     11.09393489      5.11459604
  O      9.07147426     16.94735388      5.12464661
  O     15.36243351     16.99822122      5.20356365
  O      0.39499185      2.20614343      5.03288834
  O      0.39099754      5.18565276      4.96918272
  O      0.38493447      8.10884122      4.96824219
  O      0.38770592     14.01849265      4.89678684
  O      0.38659659     11.03608303      4.97368790
  O      0.39208199     16.93892200      4.96443520
  O      6.67829294      2.19636290      5.04317702
  O     12.98705264      2.19226417      5.12034456
  O      6.68913338      5.19816851      4.97143395
  O     12.93309009      5.13767352      5.03904010
  O      6.70530968      8.11756399      5.12754314
  O     12.92943581      8.10471497      5.05116088
  O      6.67930062     14.01810010      5.12285209
  O     12.97911614     14.03154291      5.05293518
  O      6.68909694     11.03964774      5.12370593
  O     12.96752272     11.09745087      5.04122214
  O      6.68456514     16.94349456      5.12263178
  O     12.99154992     16.94419848      5.11681273
 Ti      1.59032771      2.19980366      1.49518148
 Ti      1.59029833      5.15853105      1.49701919
 Ti      1.58452612      8.11479032      1.48131099
 Ti      1.57493072     14.02300903      1.49668356
 Ti      1.58652508     11.06955403      1.49663878
 Ti      1.57835547     16.97119778      1.50662055
 Ti      7.87541292      2.25679104      1.58276888
 Ti     14.25988740      2.21078889      1.48667538
 Ti      7.87988326      5.13209081      1.58586444
 Ti     14.25050646      5.17735872      1.53335118
 Ti      7.88454179      8.09279819      1.46761092
 Ti     14.25614296      8.10848291      1.52531215
 Ti      7.88088259     14.03671697      1.51147863
 Ti     14.20350517     14.01450971      1.49008466
 Ti      7.87804145     11.06159624      1.51411683
 Ti     14.25831392     11.06048329      1.50865201
 Ti      7.88246764     17.01321952      1.47477567
 Ti     14.21322409     16.97571463      1.51710390
 Ti      4.72919327      0.72892087      1.91873664
 Ti      4.72184364      3.69379337      1.88640543
 Ti      4.72640200      6.65481645      1.91612560
 Ti      4.72227833     12.55355267      1.93261716
 Ti      4.72339115      9.60389807      1.92076762
 Ti      4.71031924     15.50419918      1.91554505
 Ti     11.04130614      0.72206362      1.92879540
 Ti     17.39347809      0.71965113      1.75829489
 Ti     11.08385163      3.64395548      1.60032009
 Ti     17.39536518      3.67982076      1.74151344
 Ti     11.05070803      6.62850981      1.82702218
 Ti     17.38338583      6.63625681      1.70441957
 Ti     11.03437089     12.54749971      1.93024949
 Ti     17.37970482     12.55768235      1.75020992
 Ti     11.09434859      9.61458768      1.61523671
 Ti     17.39699866      9.60344760      1.76510286
 Ti     11.04603394     15.50454338      1.90947934
 Ti     17.33831242     15.50210583      1.74824171
  O      1.64983604      0.72104248      2.89854720
  O      1.65091807      3.69336120      2.89196161
  O      1.65478239      6.62584132      2.88872810
  O      1.65769489     12.53613417      2.89786241
  O      1.65598087      9.59979679      2.88420639
  O      1.65988430     15.50492262      2.88952230
  O      7.87869672      0.71390475      2.95171520
  O     14.25907341      0.72069740      2.95708643
  O      7.88440014      3.69774522      2.97100588
  O     14.25909362      3.63437192      2.95120415
  O      7.88672734      6.68634300      2.94750611
  O     14.25800862      6.61786133      2.96315316
  O      7.87911797     12.53007686      2.95312718
  O     14.26056511     12.53730625      2.93969594
  O      7.88067105      9.60128523      2.95263537
  O     14.25662305      9.60407900      2.95775084
  O      7.87850319     15.50665326      2.94704534
  O     14.26413983     15.50794278      2.95368429
  O      5.96108057      2.20697026      1.67933724
  O      5.96850013      5.18856199      1.67900914
  O      5.97151215      8.12426605      1.67736568
  O      5.96172353     14.02522614      1.68438820
  O      5.96440618     11.08232572      1.68043990
  O      5.96117728     16.96113473      1.68167335
  O     12.29289719      2.20210395      1.68862790
  O     18.64466280      2.20342530      1.83272557
  O     12.29131237      5.13348280      1.75848272
  O     18.62954908      5.17210838      1.77105334
  O     12.29540353      8.11337542      1.75710639
  O     18.64406788      8.11198303      1.82459694
  O     12.28806203     14.02010007      1.76091400
  O     18.62159235     14.02894965      1.83498489
  O     12.29022812     11.08793024      1.69220792
  O     18.63965077     11.09240135      1.82734896
  O     12.28850063     16.98835604      1.76069709
  O     18.61953771     16.95007363      1.83606011
  O      3.47004980      2.20506742      1.68401346
  O      3.47435709      5.18569616      1.68060261
  O      3.47210630      8.12098944      1.68376440
  O      3.46767882     14.01952652      1.68303021
  O      3.47503502     11.08738418      1.68495822
  O      3.46942561     16.99489380      1.68314340
  O      9.79454038      2.20790344      1.68252741
  O     16.14811455      2.20273516      1.52843893
  O      9.81495393      5.17390299      1.68645882
  O     16.14200369      5.14333111      1.52910508
  O      9.81263487      8.11584174      1.68202459
  O     16.14372144      8.11578853      1.52535028
  O      9.78613773     14.02042858      1.68910580
  O     16.13113900     14.01788639      1.53217894
  O      9.79358149     11.04133493      1.68092037
  O     16.14617883     11.08661883      1.52690165
  O      9.78810767     16.99132319      1.68845485
  O     16.13674590     16.99738380      1.53506060
  O      1.42522478      0.71821231      0.31578848
  O      1.42983879      3.68172400      0.31362247
  O      1.42612347      6.62911163      0.31462364
  O      1.43157332     12.54693034      0.30886680
  O      1.42659677      9.60401978      0.31252971
  O      1.43022262     15.50434578      0.31259493
  O      7.87239294      0.77675416      0.38717787
  O     14.17888287      0.71796884      0.38671452
  O      7.87791781      3.69969625      0.38969142
  O     14.17955735      3.69702656      0.38610016
  O      7.88085636      6.61926063      0.37684483
  O     14.18045545      6.62605576      0.39079772
  O      7.87298620     12.53790079      0.38425147
  O     14.17918773     12.53658755      0.38203129
  O      7.87628368      9.59835403      0.35207387
  O     14.17951232      9.58757171      0.38903821
  O      7.87027954     15.50684756      0.37788253
  O     14.17823314     15.50792892      0.38798169
 Ti      1.21202878      0.71942337     -1.75752175
 Ti      1.21975963      3.67805472     -1.74110369
 Ti      1.22111716      6.63676035     -1.75533981
 Ti      1.22849042     12.55412208     -1.76041713
 Ti      1.22816291      9.59460746     -1.76515972
 Ti      1.22709747     15.51555674     -1.75892704
 Ti      7.81592619      0.70815691     -1.75287415
 Ti     14.38158119      0.71494161     -1.74474248
 Ti      7.80441092      3.67854378     -1.75257935
 Ti     14.37667801      3.68492053     -1.74500898
 Ti      7.81736303      6.63892084     -1.77625323
 Ti     14.39331679      6.64344134     -1.77549943
 Ti      7.83696388     12.55658465     -1.73913837
 Ti     14.41282109     12.55049553     -1.76073407
 Ti      7.83299588      9.59648136     -1.75768511
 Ti     14.39561168      9.59560913     -1.76648022
 Ti      7.81589198     15.51260085     -1.75790650
 Ti     14.40934091     15.51010728     -1.75630241
 Ti      4.52199207      2.19050397     -1.59161227
 Ti      4.52373824      5.15426536     -1.55230957
 Ti      4.52843688      8.11879900     -1.54955447
 Ti      4.52242957     14.02788300     -1.58772473
 Ti      4.53079138     11.07968169     -1.59126437
 Ti      4.51358792     17.00203362     -1.57907569
 Ti     11.08823270      2.18916184     -1.58733264
 Ti     17.65604673      2.19783817     -1.55248141
 Ti     11.08432363      5.15913192     -1.58883355
 Ti     17.66893902      5.16127300     -1.56595475
 Ti     11.08575948      8.12733818     -1.56890861
 Ti     17.68745030      8.12028738     -1.56060303
 Ti     11.11629116     14.03082356     -1.56258642
 Ti     17.68818458     14.03100085     -1.55812337
 Ti     11.09881007     11.08605676     -1.56207204
 Ti     17.69462097     11.07650451     -1.55489374
 Ti     11.10410228     16.98111534     -1.56242844
 Ti     17.67622831     16.99175535     -1.55176830
 Ti      1.30369970      2.19477698     -5.04772806
 Ti      1.31326858      5.12839073     -5.06048784
 Ti      1.30359635      8.09782824     -5.06656126
 Ti      1.29820627     14.00489532     -5.04681690
 Ti      1.30725828     11.07251972     -5.06745828
 Ti      1.18973891     16.97985252     -5.06112726
 Ti      7.88664190      2.17917051     -5.02767245
 Ti     14.46226053      2.18925818     -5.03217217
 Ti      7.90023798      5.11224747     -5.08518336
 Ti     14.48015323      5.11228181     -5.08395591
 Ti      7.89220098      8.10050586     -5.10119657
 Ti     14.47471673      8.10258285     -5.09878726
 Ti      7.90136460     14.00015542     -5.07435167
 Ti     14.48080143     14.05402072     -5.10816406
 Ti      7.90055760     11.08069982     -5.06893140
 Ti     14.49247153     11.08398312     -5.09432306
 Ti      7.79144382     16.97928002     -5.08718989
 Ti     14.46501303     16.99934982     -5.08067258
 Ti      4.50271475      0.67853286     -4.94553993
 Ti      4.59738169      3.66118026     -4.86025121
 Ti      4.58795066      6.64821928     -4.84268471
 Ti      4.60536881     12.54970432     -4.94445295
 Ti      4.55390161      9.59821891     -4.86271729
 Ti      4.49358231     15.51842562     -4.83720531
 Ti     11.07892972      0.67118858     -4.85049841
 Ti     17.67039963      0.74986841     -4.84503371
 Ti     11.18252030      3.65473495     -4.85592691
 Ti     17.76770073      3.67433079     -4.85125511
 Ti     11.15972404      6.63934225     -4.84267761
 Ti     17.67063633      6.63780116     -4.84905131
 Ti     11.17112152     12.54017942     -4.85760201
 Ti     17.76086193     12.53997692     -4.85494921
 Ti     11.16798488      9.57195295     -4.84076381
 Ti     17.76496603      9.55830793     -4.84740701
 Ti     11.15998408     15.52326962     -4.85603701
 Ti     17.68720513     15.52292102     -4.85539531
  O      4.50839834      0.71926992     -0.34010255
  O      4.51180337      3.65916205     -0.33721896
  O      4.51887021      6.64521145     -0.32875073
  O      4.51161413     12.54452216     -0.34718719
  O      4.51399177      9.60207771     -0.33527885
  O      4.50858683     15.51999133     -0.34330149
  O     11.09212688      0.71909360     -0.33393099
  O     17.67306178      0.71960864     -0.32624871
  O     11.08613898      3.66660444     -0.33859022
  O     17.67187301      3.67579707     -0.33129425
  O     11.08687446      6.64625509     -0.33282806
  O     17.67882754      6.64937818     -0.33545907
  O     11.09791677     12.54805853     -0.32934449
  O     17.68737917     12.54486418     -0.32962540
  O     11.08851999      9.59698890     -0.33086711
  O     17.68149603      9.59505575     -0.33078478
  O     11.10075215     15.51551655     -0.32912311
  O     17.68061647     15.52098124     -0.32755178
  O      2.52847458      2.19707998     -1.67679718
  O      2.52832193      5.15681189     -1.59992168
  O      2.53206906      8.11526864     -1.59912302
  O      2.53200488     14.03278665     -1.67630701
  O      2.53590867     11.07698556     -1.67230927
  O      2.52677125     17.00029427     -1.67740184
  O      9.11406052      2.19884860     -1.67864147
  O     15.66027481      2.20128230     -1.60682690
  O      9.11371744      5.15178411     -1.67959564
  O     15.68312353      5.15606203     -1.67034020
  O      9.11588751      8.11405535     -1.67463941
  O     15.69644398      8.11745240     -1.67484631
  O      9.12073918     14.04147867     -1.59814875
  O     15.69885201     14.03604208     -1.59316166
  O      9.11817370     11.07935990     -1.59758737
  O     15.69852913     11.07306338     -1.59923402
  O      9.11734449     16.99008436     -1.59691019
  O     15.68684695     16.99659036     -1.59685671
  O     -0.10072615      2.20175982     -1.60244580
  O     -0.09579378      5.15240906     -1.67670630
  O     -0.07514011      8.11249668     -1.67802483
  O     -0.07997509     14.03686181     -1.67843142
  O     -0.06251463     11.07923762     -1.67655237
  O     -0.08890155     16.99510939     -1.61109102
  O      6.53071700      2.19032508     -1.67172479
  O     13.06451304      2.19708269     -1.67898259
  O      6.52627547      5.15988572     -1.66892877
  O     13.06317794      5.16288646     -1.67592260
  O      6.53688575      8.12127107     -1.67584601
  O     13.06545909      8.11712948     -1.67680757
  O      6.53388118     14.03021317     -1.67708590
  O     13.11354058     14.03292781     -1.68743175
  O      6.54354296     11.07890128     -1.68159552
  O     13.07787612     11.07697217     -1.68239403
  O      6.51999909     16.98999569     -1.67025951
  O     13.08496487     16.98988190     -1.68200143
  O      4.53786602      0.70758103     -2.98954359
  O      4.54403684      3.67864201     -2.95059834
  O      4.54353763      6.63931244     -2.94590286
  O      4.54931403     12.55001857     -3.00414110
  O      4.54615327      9.59563606     -2.95107735
  O      4.54267882     15.51674688     -2.94921836
  O     11.04506561      0.70543087     -2.94757649
  O     17.62852426      0.71755324     -2.94208397
  O     11.12606359      3.67523189     -2.95208329
  O     17.64228330      3.67077609     -2.95163973
  O     11.04922967      6.64422526     -2.95127756
  O     17.63499851      6.63701585     -2.94918907
  O     11.04627626     12.55632668     -2.94631192
  O     17.63298724     12.55424168     -2.94694517
  O     11.04425365      9.59476593     -2.94705195
  O     17.71067856      9.59785626     -2.94637882
  O     11.11407381     15.51567955     -2.94738607
  O     17.62761844     15.51867240     -2.94770046
  O      1.16730567      0.72032719     -3.64614811
  O      1.24142946      3.67323106     -3.64559693
  O      1.25422791      6.63149921     -3.64836590
  O      1.24573761     12.55074781     -3.65661944
  O      1.24698371      9.58996293     -3.65482874
  O      1.24079256     15.51415465     -3.64850943
  O      7.84755798      0.65822843     -3.65317225
  O     14.42834009      0.70876926     -3.65114366
  O      7.75772666      3.67282632     -3.65992126
  O     14.41503644      3.67239459     -3.65396500
  O      7.84214381      6.64068554     -3.67133771
  O     14.41796467      6.63181367     -3.66446899
  O      7.92675950     12.55284276     -3.66165811
  O     14.51267915     12.55925359     -3.66583031
  O      7.92393007      9.59868971     -3.66747811
  O     14.42720808      9.60368487     -3.66342736
  O      7.85000805     15.50868029     -3.66170648
  O     14.51404225     15.51566398     -3.66595195
  O      5.75671982      2.16324301     -5.01435958
  O      5.75975303      5.15448081     -5.01530183
  O      5.76556015      8.14428322     -5.01539114
  O      5.75653567     14.03557632     -5.01636649
  O      5.78411909     11.08130282     -5.09072135
  O      5.76834411     16.97608362     -5.06744863
  O     12.34626893      2.16631666     -5.01136403
  O     18.92693223      2.16872457     -5.01182269
  O     12.35319463      5.15333855     -5.01211275
  O     18.92479343      5.15702773     -5.01288125
  O     12.38480073      8.10072512     -4.98445473
  O     18.93235633      8.05623231     -5.01259674
  O     12.35286853     14.03080392     -5.00936198
  O     18.92498483     14.03379252     -5.01470270
  O     12.37642473     11.06886562     -4.98555887
  O     18.93427013     11.04978872     -5.01564865
  O     12.37237753     16.98851532     -4.98794386
  O     18.92340113     17.02074082     -5.01352979
  O      3.22044698      2.16860736     -5.01483320
  O      3.22535877      5.15561492     -5.01428870
  O      3.22541749      8.14656077     -5.01556500
  O      3.21913862     14.03265332     -5.01720782
  O      3.22122825     11.05180552     -5.01514675
  O      3.19055941     16.98232112     -4.99293827
  O      9.80662525      2.17046481     -5.01076665
  O     16.39100653      2.17423529     -5.01482192
  O      9.80898175      5.15497252     -5.01507870
  O     16.39253663      5.14959923     -5.01645290
  O      9.91779221      8.13950322     -5.26757440
  O     16.39480123      8.14363750     -5.01513968
  O      9.93210408     14.03336686     -5.19536888
  O     16.50904620     14.03254601     -5.20296988
  O      9.94031990     11.07440600     -5.19705723
  O     16.52457610     11.06721736     -5.19701748
  O      9.89109481     16.97561302     -5.19278317
  O     16.48915131     16.99946280     -5.19553072
  O      1.25088733      0.71851802     -6.18411049
  O      1.24511498      3.66782190     -6.18930110
  O      1.25127594      6.62532430     -6.18717196
  O      1.25087407     12.55127117     -6.19242414
  O      1.24291261      9.58949157     -6.18831295
  O      1.24441005     15.50623474     -6.18118684
  O      7.75313584      0.71934483     -6.18526678
  O     14.41859379      0.72195880     -6.18694327
  O      7.83046563      3.64396538     -6.19141794
  O     14.34234357      3.65447390     -6.19246203
  O      7.75205245      6.62230557     -6.19408800
  O     14.42223371      6.61949175     -6.19834840
  O      7.75339785     12.55076102     -6.19457837
  O     14.33862573     12.56087697     -6.19719842
  O      7.82727799      9.60001139     -6.19093921
  O     14.41597948      9.59571130     -6.19876855
  O      7.75657171     15.49529594     -6.18846092
  O     14.33832771     15.52441085     -6.20041601
 Au     10.48372580      7.86926108      7.64776276
 Au     13.33472376     11.03130124      8.12548038
 Au     15.54835856      9.52151858      7.66487128
 Au     13.18034943      8.36058785      8.25401293
 Au     14.97463409      6.35323885      7.61631535
 Au      9.57296076      5.41589433      8.03983730
 Au     12.33158316      5.79494944      7.94798778
 Au      7.56045039      3.77057691      7.57684975
