439
Energy = -13269.71861765 au
 Ti      1.57147793      0.72821515      4.67664023
 Ti      1.57919839      3.69173896      4.68240553
 Ti      1.58384031      6.63618355      4.67096302
 Ti      1.59735399     12.54517251      4.67701891
 Ti      1.57274147      9.59294193      4.66795765
 Ti      1.60390401     15.49802750      4.67698391
 Ti      7.86685956      0.72993352      4.73481475
 Ti     14.18997786      0.72755141      4.74280201
 Ti      7.87852776      3.69332938      4.73864908
 Ti     14.19588675      3.67760839      4.74318501
 Ti      7.90093382      6.64803694      4.73461493
 Ti     14.19016662      6.63055050      4.74335276
 Ti      7.87391500     12.55713985      4.72722157
 Ti     14.20124495     12.55630666      4.71624879
 Ti      7.88567040      9.60840783      4.81119480
 Ti     14.17556925      9.60350239      4.80326969
 Ti      7.89034708     15.50301132      4.73467101
 Ti     14.23496823     15.50187630      4.73286816
 Ti      4.71558500      2.20258305      5.31507700
 Ti      4.72525262      5.14761304      5.27966755
 Ti      4.71693014      8.11525141      5.27743183
 Ti      4.71889239     14.02529708      5.31580339
 Ti      4.71451135     11.07805749      5.28808431
 Ti      4.71953349     16.97159435      5.29399806
 Ti     11.03105418      2.17241516      5.31988777
 Ti     17.32491630      2.19936605      5.16260745
 Ti     11.03353634      4.97015503      4.73663609
 Ti     17.30550030      5.14935556      5.14187809
 Ti     11.03840645      8.36322340      4.80636608
 Ti     17.32782966      8.10666525      5.13862749
 Ti     11.04127289     14.08755504      5.28660722
 Ti     17.33218327     14.03750998      5.14542204
 Ti     11.02904822     11.18920087      5.23851700
 Ti     17.32796841     11.08541355      5.12481023
 Ti     11.04357706     16.98279156      5.28379712
 Ti     17.32968459     16.97811371      5.13195703
  O      4.72958269      0.71827531      3.75464583
  O      4.72726751      3.69482364      3.75579008
  O      4.72460329      6.62308903      3.73739159
  O      4.65788738     12.53438336      3.75505690
  O      4.72339481      9.59874736      3.74821864
  O      4.66022907     15.50389487      3.75459113
  O     11.03050315      0.72002901      3.77240461
  O     17.25582850      0.71969650      3.65910354
  O     11.02560836      3.55411200      3.67022596
  O     17.18672538      3.69820750      3.65933878
  O     11.01617429      6.62547440      3.74046936
  O     17.24884772      6.62262771      3.64279141
  O     10.96448352     12.53766344      3.75171480
  O     17.19100505     12.53091315      3.62444872
  O     11.03039960      9.68257953      3.61565728
  O     17.26035068      9.59857791      3.62240811
  O     11.02135347     15.51097326      3.75909766
  O     17.18536046     15.50565264      3.65447901
  O      4.72973131      0.72268558      6.38480404
  O      4.72877555      3.69241279      6.38291894
  O      4.73388210      6.63827735      6.33905134
  O      4.80554291      9.59303193      6.38283142
  O      4.73177181     12.53129503      6.38595617
  O      4.72818760     15.50452242      6.38659529
  O     11.03169644      0.71753028      6.40107783
  O     17.41133944      0.72128033      6.23771917
  O     11.03138907      3.76689828      6.24518599
  O     17.41175897      3.69267862      6.23661378
  O     17.34227760      6.63751772      6.22904800
  O     11.03492370     12.59355865      6.39505336
  O     17.40939174     12.53660518      6.22514108
  O     11.03320822      9.59671020      6.15228977
  O     17.33296927      9.59924230      6.23133872
  O     11.03005887     15.51482322      6.39233767
  O     17.41174607     15.49959872      6.23270671
  O      2.76521002      2.20727533      5.12310092
  O      2.76608651      5.17774766      5.12647642
  O      2.76834248      8.11804840      5.12422809
  O      2.75582652     14.01780780      5.19895473
  O      2.76642652     11.03574283      5.13207737
  O      2.76489504     17.00079276      5.12803114
  O      9.06800490      2.20566522      5.12527747
  O     15.35439876      2.20433685      5.19694665
  O      9.12171222      5.18556271      5.11632278
  O     15.30009885      5.13607259      5.27297487
  O      9.13318357      8.10185804      5.04327682
  O     15.35117606      8.10521317      5.11563768
  O      9.07037517     14.02725826      5.12721250
  O     15.35707308     14.01970441      5.20400610
  O      9.06665382     11.10263900      5.12335443
  O     15.35750829     11.09065104      5.12306494
  O      9.06986347     16.99771211      5.12614771
  O     15.35859525     17.00171563      5.20165524
  O      0.38903590      2.21142427      4.96305768
  O      0.38377217      5.17877524      4.96746128
  O      0.38538399      8.11394041      4.96942402
  O      0.38632985     14.01809007      4.89021933
  O      0.39049960     11.09075507      4.96461127
  O      0.39368004     16.94340643      4.96325450
  O      6.68697247      2.21339873      5.12289169
  O     12.98097703      2.20451186      5.12072239
  O      6.70443009      5.17997102      5.12840314
  O     12.92348160      5.18341196      5.04067878
  O      6.69182752      8.10147427      5.04451623
  O     12.92413100      8.04987001      5.03886790
  O      6.67986278     14.02549336      5.11965408
  O     12.97614812     14.02770434      5.04775115
  O      6.67106612     11.10029727      5.04424408
  O     12.96734206     11.10601139      5.04527717
  O      6.68505987     16.95322636      5.12325609
  O     12.98888033     16.95024993      5.11756280
 Ti      1.57751711      2.20245132      1.49642961
 Ti      1.57958949      5.15771671      1.50533475
 Ti      1.59405300      8.11491979      1.47405752
 Ti      1.55889202     14.02206103      1.49942518
 Ti      1.57507294     11.07256297      1.49823315
 Ti      1.57593137     16.96979163      1.50242160
 Ti      7.87373947      2.20643114      1.50754543
 Ti     14.25360316      2.20452791      1.50026008
 Ti      7.87374562      5.17266995      1.50589621
 Ti     14.24871282      5.17526380      1.50956235
 Ti      7.87900760      8.12665411      1.53372077
 Ti     14.26738641      8.12218347      1.52504140
 Ti      7.87027861     14.00980011      1.49897647
 Ti     14.20166626     14.00816001      1.47734973
 Ti      7.87164667     11.04683710      1.54585114
 Ti     14.25719117     11.05053842      1.52355525
 Ti      7.88133648     16.96706205      1.51729220
 Ti     14.22625138     16.97069817      1.51550299
 Ti      4.72568047      0.72048157      1.92996295
 Ti      4.71578976      3.67339730      1.92464777
 Ti      4.72100288      6.62676011      1.91839948
 Ti      4.69225488     12.54354688      1.92375631
 Ti      4.72814895      9.59459965      1.92389328
 Ti      4.70336432     15.49624801      1.91750946
 Ti     11.04672661      0.71916257      1.94018771
 Ti     17.39750558      0.71887055      1.76343374
 Ti     11.07146794      3.64111021      1.59922110
 Ti     17.35656120      3.68387585      1.76965645
 Ti     11.05014373      6.63225939      1.76631373
 Ti     17.40100685      6.63567034      1.76417717
 Ti     11.02241768     12.55383567      1.91440311
 Ti     17.34705907     12.54852154      1.76208295
 Ti     11.09747895      9.62082693      1.62034873
 Ti     17.40631569      9.59507573      1.76511602
 Ti     11.05012695     15.50583099      1.90988799
 Ti     17.33791586     15.49650841      1.75663555
  O      1.65052321      0.71933831      2.89154988
  O      1.65446109      3.68992749      2.89708341
  O      1.65664789      6.62442253      2.88601859
  O      1.66023508     12.53486958      2.88980823
  O      1.65344755      9.59847490      2.88765551
  O      1.65928043     15.50517734      2.88879034
  O      7.87648622      0.72141256      2.95455733
  O     14.25805106      0.72791379      2.95824799
  O      7.87995259      3.69524906      2.95950923
  O     14.26068533      3.69189446      2.95889860
  O      7.88228090      6.61887386      2.94988304
  O     14.26221260      6.61833947      2.95609618
  O      7.88080805     12.53894943      2.94600062
  O     14.25986766     12.53505499      2.93614145
  O      7.87909678      9.60022835      2.96478126
  O     14.25494703      9.59899540      2.96724589
  O      7.87834514     15.50643698      2.95450760
  O     14.26226568     15.50922833      2.95348810
  O      5.96888509      2.20444475      1.68273104
  O      5.96477656      5.13956319      1.67829783
  O      5.96877984      8.10757218      1.68134638
  O      5.94644245     14.01879450      1.68697382
  O      5.95276306     11.08784488      1.68238725
  O      5.95697080     16.95541329      1.68466353
  O     12.29174145      2.20231608      1.69144275
  O     18.62600321      2.21235430      1.83573801
  O     12.28562436      5.13550958      1.75535746
  O     18.62473210      5.13462199      1.83102746
  O     12.29038396      8.10576813      1.75456232
  O     18.65430318      8.10935570      1.83155618
  O     12.28497695     14.01873494      1.76260387
  O     18.61176792     14.02261420      1.83351174
  O     12.28787205     11.09290197      1.68975670
  O     18.63049190     11.09202677      1.82887714
  O     12.28836522     16.99157774      1.76192195
  O     18.61922486     16.94869578      1.83485834
  O      3.47027226      2.20183858      1.68769368
  O      3.47387620      5.13819442      1.68310399
  O      3.47484334      8.11075689      1.68605711
  O      3.46213088     14.01984285      1.68042591
  O      3.47020449     11.04391798      1.68307184
  O      3.46883662     16.99618438      1.68414727
  O      9.78375435      2.20626952      1.68148293
  O     16.13872448      2.20094733      1.53067787
  O      9.79696074      5.13609246      1.68295263
  O     16.14177174      5.18191520      1.52643801
  O      9.79817816      8.10832117      1.68079790
  O     16.14727784      8.11062359      1.52902861
  O      9.78174214     14.02392535      1.68609379
  O     16.11355813     14.02116893      1.52733802
  O      9.79004786     11.04396715      1.67569529
  O     16.14111182     11.04000789      1.52299794
  O      9.78815123     16.99123387      1.69153034
  O     16.13359936     16.99698105      1.53301877
  O      1.42389295      0.72107097      0.31652238
  O      1.42678423      3.68222249      0.31616279
  O      1.42350026      6.62236058      0.31789346
  O      1.43181820     12.54381976      0.30928659
  O      1.42537824      9.60296233      0.31281209
  O      1.42920129     15.50344324      0.31245207
  O      7.87062847      0.72646315      0.38347874
  O     14.17801811      0.72343810      0.39044804
  O      7.87662553      3.68824197      0.36624433
  O     14.18016920      3.69428421      0.38664236
  O      7.87844799      6.63376204      0.37477379
  O     14.17700676      6.63454012      0.38742322
  O      7.87126744     12.53020871      0.38504300
  O     14.17993296     12.52884383      0.38323540
  O      7.87356441      9.59136870      0.38066458
  O     14.17557355      9.58404685      0.38728550
  O      7.86867202     15.50366918      0.38326688
  O     14.17540105     15.50951866      0.38503834
 Ti      1.21202878      0.71942337     -1.75752175
 Ti      1.21975963      3.67805472     -1.74110369
 Ti      1.22111716      6.63676035     -1.75533981
 Ti      1.22849042     12.55412208     -1.76041713
 Ti      1.22816291      9.59460746     -1.76515972
 Ti      1.22709747     15.51555674     -1.75892704
 Ti      7.81592619      0.70815691     -1.75287415
 Ti     14.38158119      0.71494161     -1.74474248
 Ti      7.80441092      3.67854378     -1.75257935
 Ti     14.37667801      3.68492053     -1.74500898
 Ti      7.81736303      6.63892084     -1.77625323
 Ti     14.39331679      6.64344134     -1.77549943
 Ti      7.83696388     12.55658465     -1.73913837
 Ti     14.41282109     12.55049553     -1.76073407
 Ti      7.83299588      9.59648136     -1.75768511
 Ti     14.39561168      9.59560913     -1.76648022
 Ti      7.81589198     15.51260085     -1.75790650
 Ti     14.40934091     15.51010728     -1.75630241
 Ti      4.52199207      2.19050397     -1.59161227
 Ti      4.52373824      5.15426536     -1.55230957
 Ti      4.52843688      8.11879900     -1.54955447
 Ti      4.52242957     14.02788300     -1.58772473
 Ti      4.53079138     11.07968169     -1.59126437
 Ti      4.51358792     17.00203362     -1.57907569
 Ti     11.08823270      2.18916184     -1.58733264
 Ti     17.65604673      2.19783817     -1.55248141
 Ti     11.08432363      5.15913192     -1.58883355
 Ti     17.66893902      5.16127300     -1.56595475
 Ti     11.08575948      8.12733818     -1.56890861
 Ti     17.68745030      8.12028738     -1.56060303
 Ti     11.11629116     14.03082356     -1.56258642
 Ti     17.68818458     14.03100085     -1.55812337
 Ti     11.09881007     11.08605676     -1.56207204
 Ti     17.69462097     11.07650451     -1.55489374
 Ti     11.10410228     16.98111534     -1.56242844
 Ti     17.67622831     16.99175535     -1.55176830
 Ti      1.30369970      2.19477698     -5.04772806
 Ti      1.31326858      5.12839073     -5.06048784
 Ti      1.30359635      8.09782824     -5.06656126
 Ti      1.29820627     14.00489532     -5.04681690
 Ti      1.30725828     11.07251972     -5.06745828
 Ti      1.18973891     16.97985252     -5.06112726
 Ti      7.88664190      2.17917051     -5.02767245
 Ti     14.46226053      2.18925818     -5.03217217
 Ti      7.90023798      5.11224747     -5.08518336
 Ti     14.48015323      5.11228181     -5.08395591
 Ti      7.89220098      8.10050586     -5.10119657
 Ti     14.47471673      8.10258285     -5.09878726
 Ti      7.90136460     14.00015542     -5.07435167
 Ti     14.48080143     14.05402072     -5.10816406
 Ti      7.90055760     11.08069982     -5.06893140
 Ti     14.49247153     11.08398312     -5.09432306
 Ti      7.79144382     16.97928002     -5.08718989
 Ti     14.46501303     16.99934982     -5.08067258
 Ti      4.50271475      0.67853286     -4.94553993
 Ti      4.59738169      3.66118026     -4.86025121
 Ti      4.58795066      6.64821928     -4.84268471
 Ti      4.60536881     12.54970432     -4.94445295
 Ti      4.55390161      9.59821891     -4.86271729
 Ti      4.49358231     15.51842562     -4.83720531
 Ti     11.07892972      0.67118858     -4.85049841
 Ti     17.67039963      0.74986841     -4.84503371
 Ti     11.18252030      3.65473495     -4.85592691
 Ti     17.76770073      3.67433079     -4.85125511
 Ti     11.15972404      6.63934225     -4.84267761
 Ti     17.67063633      6.63780116     -4.84905131
 Ti     11.17112152     12.54017942     -4.85760201
 Ti     17.76086193     12.53997692     -4.85494921
 Ti     11.16798488      9.57195295     -4.84076381
 Ti     17.76496603      9.55830793     -4.84740701
 Ti     11.15998408     15.52326962     -4.85603701
 Ti     17.68720513     15.52292102     -4.85539531
  O      4.50839834      0.71926992     -0.34010255
  O      4.51180337      3.65916205     -0.33721896
  O      4.51887021      6.64521145     -0.32875073
  O      4.51161413     12.54452216     -0.34718719
  O      4.51399177      9.60207771     -0.33527885
  O      4.50858683     15.51999133     -0.34330149
  O     11.09212688      0.71909360     -0.33393099
  O     17.67306178      0.71960864     -0.32624871
  O     11.08613898      3.66660444     -0.33859022
  O     17.67187301      3.67579707     -0.33129425
  O     11.08687446      6.64625509     -0.33282806
  O     17.67882754      6.64937818     -0.33545907
  O     11.09791677     12.54805853     -0.32934449
  O     17.68737917     12.54486418     -0.32962540
  O     11.08851999      9.59698890     -0.33086711
  O     17.68149603      9.59505575     -0.33078478
  O     11.10075215     15.51551655     -0.32912311
  O     17.68061647     15.52098124     -0.32755178
  O      2.52847458      2.19707998     -1.67679718
  O      2.52832193      5.15681189     -1.59992168
  O      2.53206906      8.11526864     -1.59912302
  O      2.53200488     14.03278665     -1.67630701
  O      2.53590867     11.07698556     -1.67230927
  O      2.52677125     17.00029427     -1.67740184
  O      9.11406052      2.19884860     -1.67864147
  O     15.66027481      2.20128230     -1.60682690
  O      9.11371744      5.15178411     -1.67959564
  O     15.68312353      5.15606203     -1.67034020
  O      9.11588751      8.11405535     -1.67463941
  O     15.69644398      8.11745240     -1.67484631
  O      9.12073918     14.04147867     -1.59814875
  O     15.69885201     14.03604208     -1.59316166
  O      9.11817370     11.07935990     -1.59758737
  O     15.69852913     11.07306338     -1.59923402
  O      9.11734449     16.99008436     -1.59691019
  O     15.68684695     16.99659036     -1.59685671
  O     -0.10072615      2.20175982     -1.60244580
  O     -0.09579378      5.15240906     -1.67670630
  O     -0.07514011      8.11249668     -1.67802483
  O     -0.07997509     14.03686181     -1.67843142
  O     -0.06251463     11.07923762     -1.67655237
  O     -0.08890155     16.99510939     -1.61109102
  O      6.53071700      2.19032508     -1.67172479
  O     13.06451304      2.19708269     -1.67898259
  O      6.52627547      5.15988572     -1.66892877
  O     13.06317794      5.16288646     -1.67592260
  O      6.53688575      8.12127107     -1.67584601
  O     13.06545909      8.11712948     -1.67680757
  O      6.53388118     14.03021317     -1.67708590
  O     13.11354058     14.03292781     -1.68743175
  O      6.54354296     11.07890128     -1.68159552
  O     13.07787612     11.07697217     -1.68239403
  O      6.51999909     16.98999569     -1.67025951
  O     13.08496487     16.98988190     -1.68200143
  O      4.53786602      0.70758103     -2.98954359
  O      4.54403684      3.67864201     -2.95059834
  O      4.54353763      6.63931244     -2.94590286
  O      4.54931403     12.55001857     -3.00414110
  O      4.54615327      9.59563606     -2.95107735
  O      4.54267882     15.51674688     -2.94921836
  O     11.04506561      0.70543087     -2.94757649
  O     17.62852426      0.71755324     -2.94208397
  O     11.12606359      3.67523189     -2.95208329
  O     17.64228330      3.67077609     -2.95163973
  O     11.04922967      6.64422526     -2.95127756
  O     17.63499851      6.63701585     -2.94918907
  O     11.04627626     12.55632668     -2.94631192
  O     17.63298724     12.55424168     -2.94694517
  O     11.04425365      9.59476593     -2.94705195
  O     17.71067856      9.59785626     -2.94637882
  O     11.11407381     15.51567955     -2.94738607
  O     17.62761844     15.51867240     -2.94770046
  O      1.16730567      0.72032719     -3.64614811
  O      1.24142946      3.67323106     -3.64559693
  O      1.25422791      6.63149921     -3.64836590
  O      1.24573761     12.55074781     -3.65661944
  O      1.24698371      9.58996293     -3.65482874
  O      1.24079256     15.51415465     -3.64850943
  O      7.84755798      0.65822843     -3.65317225
  O     14.42834009      0.70876926     -3.65114366
  O      7.75772666      3.67282632     -3.65992126
  O     14.41503644      3.67239459     -3.65396500
  O      7.84214381      6.64068554     -3.67133771
  O     14.41796467      6.63181367     -3.66446899
  O      7.92675950     12.55284276     -3.66165811
  O     14.51267915     12.55925359     -3.66583031
  O      7.92393007      9.59868971     -3.66747811
  O     14.42720808      9.60368487     -3.66342736
  O      7.85000805     15.50868029     -3.66170648
  O     14.51404225     15.51566398     -3.66595195
  O      5.75671982      2.16324301     -5.01435958
  O      5.75975303      5.15448081     -5.01530183
  O      5.76556015      8.14428322     -5.01539114
  O      5.75653567     14.03557632     -5.01636649
  O      5.78411909     11.08130282     -5.09072135
  O      5.76834411     16.97608362     -5.06744863
  O     12.34626893      2.16631666     -5.01136403
  O     18.92693223      2.16872457     -5.01182269
  O     12.35319463      5.15333855     -5.01211275
  O     18.92479343      5.15702773     -5.01288125
  O     12.38480073      8.10072512     -4.98445473
  O     18.93235633      8.05623231     -5.01259674
  O     12.35286853     14.03080392     -5.00936198
  O     18.92498483     14.03379252     -5.01470270
  O     12.37642473     11.06886562     -4.98555887
  O     18.93427013     11.04978872     -5.01564865
  O     12.37237753     16.98851532     -4.98794386
  O     18.92340113     17.02074082     -5.01352979
  O      3.22044698      2.16860736     -5.01483320
  O      3.22535877      5.15561492     -5.01428870
  O      3.22541749      8.14656077     -5.01556500
  O      3.21913862     14.03265332     -5.01720782
  O      3.22122825     11.05180552     -5.01514675
  O      3.19055941     16.98232112     -4.99293827
  O      9.80662525      2.17046481     -5.01076665
  O     16.39100653      2.17423529     -5.01482192
  O      9.80898175      5.15497252     -5.01507870
  O     16.39253663      5.14959923     -5.01645290
  O      9.91779221      8.13950322     -5.26757440
  O     16.39480123      8.14363750     -5.01513968
  O      9.93210408     14.03336686     -5.19536888
  O     16.50904620     14.03254601     -5.20296988
  O      9.94031990     11.07440600     -5.19705723
  O     16.52457610     11.06721736     -5.19701748
  O      9.89109481     16.97561302     -5.19278317
  O     16.48915131     16.99946280     -5.19553072
  O      1.25088733      0.71851802     -6.18411049
  O      1.24511498      3.66782190     -6.18930110
  O      1.25127594      6.62532430     -6.18717196
  O      1.25087407     12.55127117     -6.19242414
  O      1.24291261      9.58949157     -6.18831295
  O      1.24441005     15.50623474     -6.18118684
  O      7.75313584      0.71934483     -6.18526678
  O     14.41859379      0.72195880     -6.18694327
  O      7.83046563      3.64396538     -6.19141794
  O     14.34234357      3.65447390     -6.19246203
  O      7.75205245      6.62230557     -6.19408800
  O     14.42223371      6.61949175     -6.19834840
  O      7.75339785     12.55076102     -6.19457837
  O     14.33862573     12.56087697     -6.19719842
  O      7.82727799      9.60001139     -6.19093921
  O     14.41597948      9.59571130     -6.19876855
  O      7.75657171     15.49529594     -6.18846092
  O     14.33832771     15.52441085     -6.20041601
 Au     11.02893659      9.25082848     10.34438172
 Au      7.37866689      9.44515692      7.60302729
 Au      9.60544401     10.71050731      8.51745029
 Au     12.45579445     10.72142960      8.52257663
 Au     14.67814974      9.46423929      7.60464402
 Au     12.45874326      7.93992238      8.11563279
 Au     11.04883691      5.73441587      7.48395545
 Au      9.61362167      7.93119747      8.10279778
