439
Energy = -13269.72876442 au
 Ti      1.57077514      0.72727105      4.67617196
 Ti      1.57853121      3.69017432      4.68315540
 Ti      1.57712910      6.63565329      4.68154386
 Ti      1.59629259     12.54662134      4.68379684
 Ti      1.56537620      9.59226126      4.69320588
 Ti      1.60258150     15.49994971      4.67729589
 Ti      7.86887123      0.71699314      4.73243189
 Ti     14.19267119      0.72324430      4.74449884
 Ti      7.87603844      3.66636097      4.72488386
 Ti     14.19326550      3.67039988      4.74649195
 Ti      7.88640444      6.62028971      4.75685538
 Ti     14.19347604      6.62390932      4.74559413
 Ti      7.87931586     12.51376534      4.81255175
 Ti     14.22921958     12.54246433      4.73421622
 Ti      7.87414782      9.56732920      4.75564001
 Ti     14.17115743      9.59021185      4.74944838
 Ti      7.89187216     15.48612822      4.73428310
 Ti     14.22140349     15.49809496      4.73531925
 Ti      4.71791028      2.20060880      5.30616913
 Ti      4.72311552      5.13070588      5.27730321
 Ti      4.69790298      8.12675772      5.26665050
 Ti      4.71983087     14.06464184      5.27529252
 Ti      4.70245690     11.09472310      5.23400170
 Ti      4.72351740     16.98529915      5.29150220
 Ti     11.02908605      2.13731563      5.28943694
 Ti     17.32500615      2.19499714      5.16314072
 Ti     11.03721320      4.92386494      4.86857178
 Ti     17.29830690      5.14654488      5.14219832
 Ti     11.02439286      8.33177691      4.91033785
 Ti     17.30848259      8.10969481      5.16373722
 Ti     11.04360984     14.06693066      5.28818975
 Ti     17.33375429     14.02445209      5.14770533
 Ti     11.03972188     11.16317571      5.27202834
 Ti     17.32472771     11.06416835      5.13527579
 Ti     11.03839136     16.96470279      5.28853637
 Ti     17.32629106     16.96910023      5.13274854
  O      4.72916111      0.71739535      3.75662139
  O      4.72553529      3.69508184      3.75820591
  O      4.72165132      6.62129808      3.75364426
  O      4.64862069     12.52679094      3.73932334
  O      4.64950184      9.53379311      3.75255814
  O      4.65872780     15.50037163      3.75425731
  O     11.02854601      0.71541866      3.76737730
  O     17.25574602      0.72021792      3.65795990
  O     11.02989535      3.61422436      3.67394674
  O     17.18817941      3.69817027      3.65698253
  O     11.02322351      6.62293867      3.75791041
  O     17.18755853      6.62485946      3.65661833
  O     11.02283042     12.52696385      3.75736814
  O     17.18372459     12.52826524      3.63190723
  O     11.03219576      9.62032941      3.67292649
  O     17.25302021      9.59594191      3.64898980
  O     11.02213169     15.50968703      3.75808543
  O     17.18597651     15.50629812      3.64870165
  O      4.72916124      0.72523424      6.38623215
  O      4.72734240      3.69038036      6.38593720
  O      4.80299988      6.62634911      6.39292369
  O      4.81417086      9.59920095      6.38649541
  O      4.79958241     12.53200201      6.33060994
  O      4.72854224     15.50587772      6.38254549
  O     11.03138000      0.70779616      6.39834759
  O     17.41212559      0.71883854      6.23661675
  O     11.02879478      3.70104462      6.24505937
  O     17.41165889      3.69048855      6.23601379
  O     17.34363827      6.62811360      6.23465571
  O     11.03134405     12.59051452      6.39575145
  O     17.41071664     12.53592336      6.22566250
  O     11.03651687      9.60359771      6.22579523
  O     17.40879456      9.59533290      6.23410431
  O     11.03065323     15.50686919      6.39225956
  O     17.41241283     15.49630813      6.23134432
  O      2.76547390      2.20753289      5.12296636
  O      2.77010105      5.17953908      5.13328490
  O      2.76290401      8.11085047      5.19879189
  O      2.75726161     14.01698721      5.20124593
  O      2.76112471     11.03610299      5.19780210
  O      2.76555541     17.00077262      5.12780630
  O      9.06549875      2.19643177      5.12418219
  O     15.35578006      2.20401275      5.19679466
  O      9.11277209      5.13677601      5.04195294
  O     15.29844996      5.13243376      5.27539542
  O      9.12124464      8.04327023      5.12444552
  O     15.31419198      8.12145414      5.20384428
  O      9.07299569     14.01948312      5.11957422
  O     15.35939332     14.01820702      5.20484350
  O      9.06405763     11.03934810      5.11779554
  O     15.35289487     11.02938592      5.19801194
  O      9.06964659     16.99011299      5.12703847
  O     15.35847943     16.99737005      5.20168919
  O      0.38982524      2.21206029      4.96317783
  O      0.38365753      5.18283767      4.96638116
  O      0.38347491      8.11012030      4.96504619
  O      0.38779378     14.01681118      4.89024477
  O      0.39320913     11.09198101      4.96180092
  O      0.39375876     16.94271221      4.96293892
  O      6.68108875      2.20218818      5.12384211
  O     12.98599550      2.20140444      5.11808067
  O      6.69656969      5.12450030      5.12170566
  O     12.92987072      5.19081827      5.05207300
  O      6.68147381      8.10520995      5.02844588
  O     12.92877976      8.04879888      5.11887335
  O      6.67218740     14.03401176      5.10126538
  O     12.98681861     14.01856247      5.04832242
  O      6.63278489     11.02258932      4.88649053
  O     12.98839765     11.09658349      5.11868312
  O      6.68385414     16.94605317      5.12338105
  O     12.98952539     16.94738580      5.11683779
 Ti      1.57592702      2.20348431      1.49534167
 Ti      1.57584892      5.16233381      1.50571965
 Ti      1.58462825      8.11471018      1.48743146
 Ti      1.55658737     14.01984875      1.50025132
 Ti      1.57220942     11.06951740      1.50484649
 Ti      1.57169272     16.96971503      1.50247436
 Ti      7.87822432      2.20924943      1.50321390
 Ti     14.24950634      2.20386099      1.50715893
 Ti      7.87988803      5.17496389      1.51767453
 Ti     14.24032852      5.16527024      1.51506031
 Ti      7.88205248      8.12482893      1.50673350
 Ti     14.25485074      8.11178038      1.50279980
 Ti      7.87600959     14.00340849      1.52850668
 Ti     14.19727634     14.02161527      1.49373448
 Ti      7.87490922     11.07456396      1.56898500
 Ti     14.25054751     11.06872303      1.50793769
 Ti      7.88168246     16.96130477      1.51040111
 Ti     14.22020266     16.97626972      1.51443586
 Ti      4.72713527      0.71984656      1.92470447
 Ti      4.71567130      3.67188014      1.91763593
 Ti      4.72337801      6.62160243      1.92281460
 Ti      4.70183531     12.53415630      1.90192805
 Ti      4.71310127      9.57595483      1.91252355
 Ti      4.69630529     15.49410010      1.90266737
 Ti     11.04447213      0.72291551      1.93374043
 Ti     17.39271922      0.71930572      1.76466785
 Ti     11.07503250      3.65428571      1.60969525
 Ti     17.35829757      3.68392009      1.76825039
 Ti     11.04286950      6.62804317      1.86702916
 Ti     17.38109787      6.63488741      1.77607104
 Ti     11.03094139     12.54386493      1.92530780
 Ti     17.34409516     12.54911308      1.76493417
 Ti     11.08975474      9.60221497      1.63964960
 Ti     17.39969568      9.59435407      1.77109982
 Ti     11.04665724     15.50545608      1.91114382
 Ti     17.33457400     15.49788970      1.75708788
  O      1.65052062      0.71957819      2.89175504
  O      1.65402862      3.69063094      2.89972121
  O      1.65736449      6.62670151      2.89266160
  O      1.66076474     12.53279009      2.89516103
  O      1.65442579      9.59618048      2.90824375
  O      1.65972705     15.50410779      2.88947996
  O      7.87543575      0.71833872      2.95386690
  O     14.26019048      0.72248979      2.95921591
  O      7.87614622      3.68507996      2.94644830
  O     14.26206707      3.69417935      2.96072063
  O      7.87944264      6.61726119      2.95665142
  O     14.26126906      6.62322000      2.95849967
  O      7.87955422     12.53261770      2.96300563
  O     14.26089949     12.52578367      2.95246045
  O      7.88782647      9.53905162      2.95488601
  O     14.25433020      9.59734418      2.96443549
  O      7.87754232     15.50442052      2.95307494
  O     14.26170300     15.50862503      2.95368480
  O      5.96418131      2.20285897      1.68231086
  O      5.95774098      5.14020218      1.67911285
  O      5.95874033      8.10371994      1.68117655
  O      5.93652102     14.01655180      1.68513368
  O      5.94606357     11.04362216      1.69004719
  O      5.94772171     16.95175506      1.68448173
  O     12.29369154      2.20492558      1.75359545
  O     18.62590767      2.21215332      1.83540338
  O     12.28841717      5.13854642      1.75324725
  O     18.61906581      5.14449589      1.83515769
  O     12.29324076      8.10710646      1.75629650
  O     18.64201027      8.10775702      1.83665352
  O     12.28584329     14.01773825      1.76226294
  O     18.60936851     14.02063455      1.83451615
  O     12.28764815     11.07905768      1.69785248
  O     18.62171100     11.08910742      1.83322015
  O     12.28815941     16.99105223      1.76119612
  O     18.61773863     16.94864042      1.83442544
  O      3.46895382      2.20162318      1.68780963
  O      3.47145686      5.13755875      1.68427798
  O      3.46824097      8.10249709      1.68267367
  O      3.46060284     14.01553753      1.68042550
  O      3.46704201     11.04134126      1.68163891
  O      3.46668678     16.99552830      1.68393737
  O      9.78547867      2.20671478      1.68153482
  O     16.13662713      2.20173085      1.53196186
  O      9.79519344      5.13548737      1.68282363
  O     16.13767395      5.17835765      1.52554223
  O      9.79869495      8.10722307      1.68027037
  O     16.14273144      8.11414300      1.53020547
  O      9.78383554     14.01993182      1.68868411
  O     16.10680307     14.01938239      1.52870608
  O      9.79063136     11.03737399      1.68602448
  O     16.13817543     11.03850221      1.52576663
  O      9.78652500     16.98736734      1.69143091
  O     16.13106446     16.99724130      1.53183715
  O      1.42412533      0.72114572      0.31691891
  O      1.42574617      3.68548762      0.31768602
  O      1.42343213      6.62482076      0.32067595
  O      1.43045568     12.53827195      0.31295151
  O      1.42450794      9.60194855      0.31824755
  O      1.42951862     15.50195178      0.31339373
  O      7.86934028      0.72331088      0.38210204
  O     14.17476890      0.72808967      0.39089145
  O      7.87482529      3.68963960      0.36807892
  O     14.17803477      3.69153269      0.38878364
  O      7.87639687      6.62528280      0.36750636
  O     14.17847446      6.62987515      0.38628552
  O      7.86935759     12.52679279      0.39223461
  O     14.17855391     12.53383904      0.38622679
  O      7.87367681      9.59958703      0.38682829
  O     14.17657146      9.58928753      0.38757830
  O      7.86678923     15.49564580      0.38774293
  O     14.17507499     15.50831891      0.38799796
 Ti      1.21202878      0.71942337     -1.75752175
 Ti      1.21975963      3.67805472     -1.74110369
 Ti      1.22111716      6.63676035     -1.75533981
 Ti      1.22849042     12.55412208     -1.76041713
 Ti      1.22816291      9.59460746     -1.76515972
 Ti      1.22709747     15.51555674     -1.75892704
 Ti      7.81592619      0.70815691     -1.75287415
 Ti     14.38158119      0.71494161     -1.74474248
 Ti      7.80441092      3.67854378     -1.75257935
 Ti     14.37667801      3.68492053     -1.74500898
 Ti      7.81736303      6.63892084     -1.77625323
 Ti     14.39331679      6.64344134     -1.77549943
 Ti      7.83696388     12.55658465     -1.73913837
 Ti     14.41282109     12.55049553     -1.76073407
 Ti      7.83299588      9.59648136     -1.75768511
 Ti     14.39561168      9.59560913     -1.76648022
 Ti      7.81589198     15.51260085     -1.75790650
 Ti     14.40934091     15.51010728     -1.75630241
 Ti      4.52199207      2.19050397     -1.59161227
 Ti      4.52373824      5.15426536     -1.55230957
 Ti      4.52843688      8.11879900     -1.54955447
 Ti      4.52242957     14.02788300     -1.58772473
 Ti      4.53079138     11.07968169     -1.59126437
 Ti      4.51358792     17.00203362     -1.57907569
 Ti     11.08823270      2.18916184     -1.58733264
 Ti     17.65604673      2.19783817     -1.55248141
 Ti     11.08432363      5.15913192     -1.58883355
 Ti     17.66893902      5.16127300     -1.56595475
 Ti     11.08575948      8.12733818     -1.56890861
 Ti     17.68745030      8.12028738     -1.56060303
 Ti     11.11629116     14.03082356     -1.56258642
 Ti     17.68818458     14.03100085     -1.55812337
 Ti     11.09881007     11.08605676     -1.56207204
 Ti     17.69462097     11.07650451     -1.55489374
 Ti     11.10410228     16.98111534     -1.56242844
 Ti     17.67622831     16.99175535     -1.55176830
 Ti      1.30369970      2.19477698     -5.04772806
 Ti      1.31326858      5.12839073     -5.06048784
 Ti      1.30359635      8.09782824     -5.06656126
 Ti      1.29820627     14.00489532     -5.04681690
 Ti      1.30725828     11.07251972     -5.06745828
 Ti      1.18973891     16.97985252     -5.06112726
 Ti      7.88664190      2.17917051     -5.02767245
 Ti     14.46226053      2.18925818     -5.03217217
 Ti      7.90023798      5.11224747     -5.08518336
 Ti     14.48015323      5.11228181     -5.08395591
 Ti      7.89220098      8.10050586     -5.10119657
 Ti     14.47471673      8.10258285     -5.09878726
 Ti      7.90136460     14.00015542     -5.07435167
 Ti     14.48080143     14.05402072     -5.10816406
 Ti      7.90055760     11.08069982     -5.06893140
 Ti     14.49247153     11.08398312     -5.09432306
 Ti      7.79144382     16.97928002     -5.08718989
 Ti     14.46501303     16.99934982     -5.08067258
 Ti      4.50271475      0.67853286     -4.94553993
 Ti      4.59738169      3.66118026     -4.86025121
 Ti      4.58795066      6.64821928     -4.84268471
 Ti      4.60536881     12.54970432     -4.94445295
 Ti      4.55390161      9.59821891     -4.86271729
 Ti      4.49358231     15.51842562     -4.83720531
 Ti     11.07892972      0.67118858     -4.85049841
 Ti     17.67039963      0.74986841     -4.84503371
 Ti     11.18252030      3.65473495     -4.85592691
 Ti     17.76770073      3.67433079     -4.85125511
 Ti     11.15972404      6.63934225     -4.84267761
 Ti     17.67063633      6.63780116     -4.84905131
 Ti     11.17112152     12.54017942     -4.85760201
 Ti     17.76086193     12.53997692     -4.85494921
 Ti     11.16798488      9.57195295     -4.84076381
 Ti     17.76496603      9.55830793     -4.84740701
 Ti     11.15998408     15.52326962     -4.85603701
 Ti     17.68720513     15.52292102     -4.85539531
  O      4.50839834      0.71926992     -0.34010255
  O      4.51180337      3.65916205     -0.33721896
  O      4.51887021      6.64521145     -0.32875073
  O      4.51161413     12.54452216     -0.34718719
  O      4.51399177      9.60207771     -0.33527885
  O      4.50858683     15.51999133     -0.34330149
  O     11.09212688      0.71909360     -0.33393099
  O     17.67306178      0.71960864     -0.32624871
  O     11.08613898      3.66660444     -0.33859022
  O     17.67187301      3.67579707     -0.33129425
  O     11.08687446      6.64625509     -0.33282806
  O     17.67882754      6.64937818     -0.33545907
  O     11.09791677     12.54805853     -0.32934449
  O     17.68737917     12.54486418     -0.32962540
  O     11.08851999      9.59698890     -0.33086711
  O     17.68149603      9.59505575     -0.33078478
  O     11.10075215     15.51551655     -0.32912311
  O     17.68061647     15.52098124     -0.32755178
  O      2.52847458      2.19707998     -1.67679718
  O      2.52832193      5.15681189     -1.59992168
  O      2.53206906      8.11526864     -1.59912302
  O      2.53200488     14.03278665     -1.67630701
  O      2.53590867     11.07698556     -1.67230927
  O      2.52677125     17.00029427     -1.67740184
  O      9.11406052      2.19884860     -1.67864147
  O     15.66027481      2.20128230     -1.60682690
  O      9.11371744      5.15178411     -1.67959564
  O     15.68312353      5.15606203     -1.67034020
  O      9.11588751      8.11405535     -1.67463941
  O     15.69644398      8.11745240     -1.67484631
  O      9.12073918     14.04147867     -1.59814875
  O     15.69885201     14.03604208     -1.59316166
  O      9.11817370     11.07935990     -1.59758737
  O     15.69852913     11.07306338     -1.59923402
  O      9.11734449     16.99008436     -1.59691019
  O     15.68684695     16.99659036     -1.59685671
  O     -0.10072615      2.20175982     -1.60244580
  O     -0.09579378      5.15240906     -1.67670630
  O     -0.07514011      8.11249668     -1.67802483
  O     -0.07997509     14.03686181     -1.67843142
  O     -0.06251463     11.07923762     -1.67655237
  O     -0.08890155     16.99510939     -1.61109102
  O      6.53071700      2.19032508     -1.67172479
  O     13.06451304      2.19708269     -1.67898259
  O      6.52627547      5.15988572     -1.66892877
  O     13.06317794      5.16288646     -1.67592260
  O      6.53688575      8.12127107     -1.67584601
  O     13.06545909      8.11712948     -1.67680757
  O      6.53388118     14.03021317     -1.67708590
  O     13.11354058     14.03292781     -1.68743175
  O      6.54354296     11.07890128     -1.68159552
  O     13.07787612     11.07697217     -1.68239403
  O      6.51999909     16.98999569     -1.67025951
  O     13.08496487     16.98988190     -1.68200143
  O      4.53786602      0.70758103     -2.98954359
  O      4.54403684      3.67864201     -2.95059834
  O      4.54353763      6.63931244     -2.94590286
  O      4.54931403     12.55001857     -3.00414110
  O      4.54615327      9.59563606     -2.95107735
  O      4.54267882     15.51674688     -2.94921836
  O     11.04506561      0.70543087     -2.94757649
  O     17.62852426      0.71755324     -2.94208397
  O     11.12606359      3.67523189     -2.95208329
  O     17.64228330      3.67077609     -2.95163973
  O     11.04922967      6.64422526     -2.95127756
  O     17.63499851      6.63701585     -2.94918907
  O     11.04627626     12.55632668     -2.94631192
  O     17.63298724     12.55424168     -2.94694517
  O     11.04425365      9.59476593     -2.94705195
  O     17.71067856      9.59785626     -2.94637882
  O     11.11407381     15.51567955     -2.94738607
  O     17.62761844     15.51867240     -2.94770046
  O      1.16730567      0.72032719     -3.64614811
  O      1.24142946      3.67323106     -3.64559693
  O      1.25422791      6.63149921     -3.64836590
  O      1.24573761     12.55074781     -3.65661944
  O      1.24698371      9.58996293     -3.65482874
  O      1.24079256     15.51415465     -3.64850943
  O      7.84755798      0.65822843     -3.65317225
  O     14.42834009      0.70876926     -3.65114366
  O      7.75772666      3.67282632     -3.65992126
  O     14.41503644      3.67239459     -3.65396500
  O      7.84214381      6.64068554     -3.67133771
  O     14.41796467      6.63181367     -3.66446899
  O      7.92675950     12.55284276     -3.66165811
  O     14.51267915     12.55925359     -3.66583031
  O      7.92393007      9.59868971     -3.66747811
  O     14.42720808      9.60368487     -3.66342736
  O      7.85000805     15.50868029     -3.66170648
  O     14.51404225     15.51566398     -3.66595195
  O      5.75671982      2.16324301     -5.01435958
  O      5.75975303      5.15448081     -5.01530183
  O      5.76556015      8.14428322     -5.01539114
  O      5.75653567     14.03557632     -5.01636649
  O      5.78411909     11.08130282     -5.09072135
  O      5.76834411     16.97608362     -5.06744863
  O     12.34626893      2.16631666     -5.01136403
  O     18.92693223      2.16872457     -5.01182269
  O     12.35319463      5.15333855     -5.01211275
  O     18.92479343      5.15702773     -5.01288125
  O     12.38480073      8.10072512     -4.98445473
  O     18.93235633      8.05623231     -5.01259674
  O     12.35286853     14.03080392     -5.00936198
  O     18.92498483     14.03379252     -5.01470270
  O     12.37642473     11.06886562     -4.98555887
  O     18.93427013     11.04978872     -5.01564865
  O     12.37237753     16.98851532     -4.98794386
  O     18.92340113     17.02074082     -5.01352979
  O      3.22044698      2.16860736     -5.01483320
  O      3.22535877      5.15561492     -5.01428870
  O      3.22541749      8.14656077     -5.01556500
  O      3.21913862     14.03265332     -5.01720782
  O      3.22122825     11.05180552     -5.01514675
  O      3.19055941     16.98232112     -4.99293827
  O      9.80662525      2.17046481     -5.01076665
  O     16.39100653      2.17423529     -5.01482192
  O      9.80898175      5.15497252     -5.01507870
  O     16.39253663      5.14959923     -5.01645290
  O      9.91779221      8.13950322     -5.26757440
  O     16.39480123      8.14363750     -5.01513968
  O      9.93210408     14.03336686     -5.19536888
  O     16.50904620     14.03254601     -5.20296988
  O      9.94031990     11.07440600     -5.19705723
  O     16.52457610     11.06721736     -5.19701748
  O      9.89109481     16.97561302     -5.19278317
  O     16.48915131     16.99946280     -5.19553072
  O      1.25088733      0.71851802     -6.18411049
  O      1.24511498      3.66782190     -6.18930110
  O      1.25127594      6.62532430     -6.18717196
  O      1.25087407     12.55127117     -6.19242414
  O      1.24291261      9.58949157     -6.18831295
  O      1.24441005     15.50623474     -6.18118684
  O      7.75313584      0.71934483     -6.18526678
  O     14.41859379      0.72195880     -6.18694327
  O      7.83046563      3.64396538     -6.19141794
  O     14.34234357      3.65447390     -6.19246203
  O      7.75205245      6.62230557     -6.19408800
  O     14.42223371      6.61949175     -6.19834840
  O      7.75339785     12.55076102     -6.19457837
  O     14.33862573     12.56087697     -6.19719842
  O      7.82727799      9.60001139     -6.19093921
  O     14.41597948      9.59571130     -6.19876855
  O      7.75657171     15.49529594     -6.18846092
  O     14.33832771     15.52441085     -6.20041601
 Au      6.88729502      9.71679449      7.75960531
 Au      9.13461406      5.44715838      7.84551011
 Au      9.08776172      8.13304528      8.37406059
 Au     11.43912610      9.29550567      9.04331760
 Au      7.28969809     12.46730443      7.60511969
 Au      6.74746876      6.89087632      7.78610779
 Au      9.32955485     10.92762540      8.41060028
 Au     11.48763457      6.81334155      7.59362400
