439
Energy = -13261.72680783 au
 Ti     -0.23509312      2.21425512      2.98573593
 Ti     -0.39546610      5.28628299      2.50826343
 Ti      0.63053504      8.50695344      3.13685193
 Ti      1.64265198     14.32447421      2.83674599
 Ti      1.63380173     11.42443260      4.16438186
 Ti      2.34477243     17.32110565      2.91659126
 Ti      3.91512155      2.12007341      5.11190165
 Ti     10.31710957      0.86913647      4.21205446
 Ti      6.16887554      4.54154620      4.35564236
 Ti     12.12785304      2.71297845      5.72585961
 Ti      6.43339660      7.44819084      4.02085347
 Ti     12.20814425      5.74879342      5.70956102
 Ti      7.85599106     13.07187730      4.27176759
 Ti     13.78922223     11.47666557      6.07132155
 Ti      7.01126779     10.31647439      4.01208837
 Ti     13.00158650      8.61906924      5.89954641
 Ti      8.42173587     15.84112719      4.65874189
 Ti     14.28940371     14.51807128      6.04762784
 Ti      2.32297651      4.07974086      4.30234581
 Ti      3.33576890      6.73546778      4.41171101
 Ti      3.92091276      9.52768600      4.40760926
 Ti      5.05697864     15.10878307      4.09637059
 Ti      4.45766233     12.43252363      4.00197489
 Ti      5.68715546     17.68074118      4.10405044
 Ti      7.56430804      1.57141724      5.69466340
 Ti     14.70890332      0.61506618      7.33306839
 Ti      9.13292913      4.74809384      4.73789797
 Ti     14.55289940      3.76130204      7.67957322
 Ti      9.77442868      8.13564888      4.74125531
 Ti     15.06509659      6.53469983      7.83092899
 Ti     11.01252541     13.63705077      5.66364066
 Ti     16.72564032     11.90770820      7.79909932
 Ti     10.31768990     10.84448682      5.43503114
 Ti     15.90972208      9.24690598      7.84035621
 Ti     11.92635598     16.25033342      5.13263546
 Ti     17.42051564     14.95076770      7.06985298
  O      3.47112200      2.76907624      3.37654426
  O      3.38516223      5.12519437      2.81265870
  O      4.55658272      7.94052543      3.11638413
  O      5.27574924     13.70040635      2.64433374
  O      5.05437654     10.70573255      3.03081848
  O      5.67481898     16.45658139      2.79226024
  O      8.57590860      1.02293090      3.60424235
  O     16.22585821     -0.05774541      6.24722498
  O      9.54156045      3.61482021      3.50867605
  O     15.53885525      2.83918258      5.04022725
  O     10.00080117      6.35816490      3.82538018
  O     15.60296500      4.95634801      6.71174505
  O     11.12470499     12.19591808      4.14533385
  O     17.11441246     10.48148039      6.70345295
  O     10.64083110      9.38104552      3.83427584
  O     16.39317945      7.71604199      6.71737510
  O     11.73953469     14.81055753      4.09271602
  O     17.80256531     14.56463483      5.43148440
  O      2.28003100      2.68086866      5.60192793
  O      2.36808778      5.51698068      5.35874042
  O      3.38176147      8.19078610      5.50769840
  O      3.46534977     11.18432915      5.12416932
  O      4.32528411     13.78296812      5.13574069
  O      4.88802776     16.52235462      5.21696071
  O      7.88533365      1.65321034      7.34792210
  O     14.33349317     -0.46988355      8.49237399
  O      7.56766116      3.46388045      5.12282625
  O     15.28670101      2.22707729      8.17148929
  O     14.49272775      5.11584527      8.89825773
  O     10.39450467     12.20088097      6.64039829
  O     16.23289579     10.70864275      9.03371134
  O      9.68970508      9.28959787      6.16079959
  O     15.28497291      7.95113239      8.96782497
  O     11.35132640     15.20812710      6.55455308
  O     17.79969790     13.45498193      8.00286219
  O      0.93038718      4.10288593      3.12097378
  O      1.88949084      7.31594739      3.36899681
  O      2.33625296      9.74969751      3.44255229
  O      2.92030492     15.58481126      3.43482108
  O      2.75920329     12.76329323      3.19562414
  O      3.63389334     18.20453622      3.92454939
  O      5.69285803      1.48236112      5.44315545
  O     13.15491921      1.49024838      6.48293262
  O      7.57865159      5.90596530      4.48460307
  O     13.07238947      4.17576375      6.55128251
  O      8.03003847      8.51478114      4.16851857
  O     13.61471587      6.93008384      6.78525499
  O      9.15212303     14.10635574      5.26591744
  O     15.13121920     12.36377687      7.04173555
  O      8.58704511     11.26300757      4.63750177
  O     14.39786350      9.69164770      6.88385696
  O     10.00405105     16.92458146      5.04408770
  O     15.67898851     14.96842609      7.20370962
  O     -1.48646782      3.77037870      3.62327070
  O     -0.61672004      6.84986571      3.36196876
  O      0.15258580     10.46138643      3.38515982
  O      0.63763786     16.22314731      2.24687725
  O      0.55124593     13.15108680      3.91669693
  O      1.02939299     18.74306167      3.12924805
  O      4.65588756      3.78790553      5.20301715
  O     10.40739127      1.89790500      5.66892478
  O      5.21364721      6.21371406      4.79257201
  O     10.78865567      4.58321626      5.68098011
  O      5.83828537      9.13594219      4.88632533
  O     11.49896676      7.48323532      5.68532518
  O      6.84085365     14.65484767      4.72193634
  O     12.91669670     13.12959030      6.16479689
  O      6.32812822     12.03660820      4.65072614
  O     12.22465718     10.32010978      6.00015857
  O      7.33087620     17.33061588      5.12164343
  O     13.75713638     16.22776138      5.60598727
 Ti      1.20763871      3.26014612     -0.06217972
 Ti      1.66656763      6.99277718     -0.00923728
 Ti      2.25797541      9.88739124      0.28967237
 Ti      3.04034756     15.62023786     -0.40992374
 Ti      2.73128928     12.59972677      0.01860669
 Ti      1.95134318     18.45002122     -1.78479498
 Ti      6.33988750      2.35504461      0.66852597
 Ti     12.67611750      1.15937123      2.41359037
 Ti      6.97661036      5.36803749      0.97287674
 Ti     13.14585490      4.22028142      2.54537655
 Ti      7.79989757      8.39591466      0.81209127
 Ti     13.93794342      7.04345570      2.79262007
 Ti      8.93901968     14.49333689      1.36061825
 Ti     14.81727048     12.74995371      2.98909987
 Ti      8.41862981     11.49177055      0.97028632
 Ti     14.94222845      9.79822331      3.12557943
 Ti     10.65647296     16.98598811      0.24764456
 Ti     15.39250212     15.80897706      2.32647986
 Ti      3.89204950      1.80032703      1.91408566
 Ti      3.50469276      4.85035533      0.99297781
 Ti      4.81976605      7.66297513      1.27111049
 Ti      5.60054660     13.67476442      0.78425662
 Ti      5.42834160     10.59638091      1.17061793
 Ti      6.17010928     16.61888515      0.32196824
 Ti      8.81219546      0.82257709      1.75058849
 Ti     16.00184355      0.02666269      4.49416512
 Ti      9.83085414      3.64317800      1.63147612
 Ti     15.58518316      2.44408989      3.26739505
 Ti     10.44540630      6.47270606      1.93147384
 Ti     15.99024489      4.79466677      4.83017710
 Ti     11.54665872     12.09874315      2.33716753
 Ti     18.01848854     10.48077060      4.91542452
 Ti     11.17904847      9.32021166      1.88463032
 Ti     17.11336562      7.41799499      4.92054099
 Ti     12.06472276     15.05343948      2.01457293
 Ti     17.72307270     13.76291321      3.64591829
  O     -0.24019503      3.30185518      1.11739512
  O      0.29995099      6.13736831      1.03660665
  O      0.93692214      8.75513626      1.19669201
  O      2.13219607     14.40980025      0.96726966
  O      1.47589296     11.66704543      1.03399874
  O      1.31946252     16.55185793     -0.30768923
  O      5.66936527      1.43673242      2.30603579
  O     12.06788150      0.17457535      3.98905041
  O      6.38837895      4.40846747      2.55507602
  O     12.59580768      2.90679838      3.92958814
  O      6.70391708      7.23342313      2.14580067
  O     12.99222462      5.66987314      4.08014704
  O      8.12962041     12.90121498      2.47855887
  O     14.33709477     11.32782592      4.34521569
  O      7.31629252     10.09444711      2.16789795
  O     13.70035575      8.58265602      4.24563474
  O      8.58250555     15.44976493      2.95730657
  O     14.96925592     13.93549117      4.55540026
  O      4.67101623      3.14977331      0.72993188
  O      5.13145578      5.84360806      0.64360005
  O      5.92485928      8.90105485      0.40634527
  O      7.03139654     14.81451879      0.71920689
  O      6.54420073     11.97490519      0.56880889
  O      7.64941394     17.32533178      1.27825888
  O     10.69507276      1.57298663      2.24432764
  O     17.17697342      1.11517101      3.51043351
  O     11.36145677      4.70735058      1.92092360
  O     18.26759271      3.08382417      4.63830771
  O     11.97483699      7.56049954      2.16871458
  O     17.48777234      5.66925738      5.36035835
  O     13.15975651     13.17096401      2.31827418
  O     19.52832124     11.25716430      5.67841746
  O     12.53205194     10.41703875      2.23604825
  O     18.59682768      8.64234896      5.03265549
  O     13.62719641     15.89656096      2.55449773
  O     19.15314686     15.59718131      3.51401255
  O      2.44469479      2.99055448      1.12954999
  O      3.07004193      6.85718795      1.04274221
  O      3.78424486      9.45349868      1.11789213
  O      4.63285375     15.44290282      0.55942244
  O      4.24664537     12.20014915      0.88438890
  O      3.07625823     17.87485587      1.37084489
  O      8.18653886      2.44635407      1.35018800
  O     14.57045250      0.86638487      3.42670484
  O      8.89421928      5.20304259      1.52225254
  O     15.02612916      4.17925510      3.04648977
  O      9.46204008      8.04518675      1.68049147
  O     15.51907880      6.53876049      4.07710351
  O     10.63615854     13.70126988      1.84249461
  O     17.07840156     12.19808637      4.08899320
  O     10.08475960     10.94715302      1.76745599
  O     16.38489884      9.30228436      4.07390232
  O     10.71308942     16.29206270      2.01384241
  O     16.38763698     16.14499250      3.83770066
  O      0.73169767      1.65892819     -0.72692012
  O      1.96794447      5.03466216     -0.30626071
  O      2.13037712      8.43802672     -0.88582234
  O      3.15066842     13.95495616     -1.19144929
  O      2.74994024     11.09583787     -0.95914080
  O      3.23163686     17.02764074     -1.59740295
  O      6.06363333      0.86706385     -0.32599610
  O     12.45135008      0.07788788      1.04007694
  O      6.93210237      4.02044374     -0.23199512
  O     13.31173454      2.73590280      1.44924292
  O      7.62624220      6.87077980     -0.16821783
  O     13.79296677      5.75640074      1.51823411
  O      8.83221249     12.92374482      0.00519868
  O     15.21079876     11.25877616      1.99117248
  O      8.27272180      9.92459473     -0.14688861
  O     14.64937290      8.42684670      1.84703651
  O      9.37135505     15.61279189     -0.06533978
  O     15.99149311     14.01883855      2.15627115
 Ti      0.45002290      2.41937682     -4.00119975
 Ti      1.01138827      5.32272659     -3.90498234
 Ti      1.57377222      8.22680159     -3.84004976
 Ti      2.69756764     14.03444414     -3.68635562
 Ti      2.14040243     11.12903578     -3.76953357
 Ti      3.25420474     16.94200453     -3.60668695
 Ti      6.74999291      1.15683722     -2.47542741
 Ti     13.01605956     -0.08067057     -0.95459839
 Ti      7.29893275      4.07508279     -2.39901623
 Ti     13.57136326      2.83591122     -0.87722058
 Ti      7.87488054      6.97843021     -2.34054834
 Ti     14.15205597      5.73661410     -0.82458321
 Ti      9.00064824     12.78481664     -2.14298715
 Ti     15.28089884     11.53219820     -0.64906576
 Ti      8.44308906      9.87927013     -2.24044726
 Ti     14.70872507      8.63451466     -0.73698680
 Ti      9.54216499     15.69042005     -2.08770211
 Ti     15.83451995     14.43841791     -0.56706499
 Ti      3.84823503      3.23925732     -3.03817774
 Ti      4.39956415      6.14919227     -2.92094250
 Ti      4.96230720      9.05866342     -2.83855762
 Ti      6.07942234     14.86011574     -2.72035653
 Ti      5.53240548     11.96418878     -2.80006227
 Ti      6.62969199     17.78170094     -2.63510307
 Ti     10.11421917      1.99359054     -1.52117633
 Ti     16.37652521      0.75801485      0.02619133
 Ti     10.67075544      4.90995288     -1.44477046
 Ti     16.95063387      3.66456031      0.09464894
 Ti     11.22710676      7.82395902     -1.34633825
 Ti     17.52491965      6.56604246      0.18259573
 Ti     12.36775420     13.61379665     -1.17658768
 Ti     18.63937775     12.36855351      0.34193486
 Ti     11.79578144     10.72621258     -1.25821310
 Ti     18.08777122      9.46693425      0.26820326
 Ti     12.91229426     16.51243987     -1.10099773
 Ti     19.18467948     15.27753631      0.42388401
 Ti      1.57640541      3.79074160     -7.14144663
 Ti      2.14155492      6.66865420     -7.07385151
 Ti      2.69354731      9.58550307     -7.00323545
 Ti      3.79748066     15.38590802     -6.82861013
 Ti      3.25806031     12.50507655     -6.92437257
 Ti      4.25812196     18.32674988     -6.78862262
 Ti      7.85199370      2.52819203     -5.60562962
 Ti     14.13111351      1.29180956     -4.09470434
 Ti      8.43123292      5.40400336     -5.58065181
 Ti     14.71123416      4.15704096     -4.06343220
 Ti      8.99063254      8.33883882     -5.51882862
 Ti     15.27322769      7.09341028     -3.99980603
 Ti     10.10541669     14.12933241     -5.33413988
 Ti     16.40321160     12.93467199     -3.84968729
 Ti      9.55299624     11.26352544     -5.40648015
 Ti     15.85121700     10.01699615     -3.91230317
 Ti     10.56511605     17.07456758     -5.29294471
 Ti     16.93706057     15.82962086     -3.74847006
 Ti      4.32026280      1.69780809     -6.34519801
 Ti      4.95320917      4.60950682     -6.16132060
 Ti      5.50328426      7.54401800     -6.06718680
 Ti      6.65603024     13.33241815     -6.00565391
 Ti      6.03157288     10.44615139     -6.01628126
 Ti      7.08422200     16.26997030     -5.84835290
 Ti     10.57365007      0.44600355     -4.73777049
 Ti     16.87852690     -0.72586484     -3.21168119
 Ti     11.23625828      3.35524948     -4.64005695
 Ti     17.52417643      2.12655536     -3.11775500
 Ti     11.77411652      6.28982813     -4.55326650
 Ti     17.98971755      5.05425871     -3.05938098
 Ti     12.90091435     12.08030723     -4.40866200
 Ti     19.18991912     10.83127609     -2.88779845
 Ti     12.33443573      9.16726987     -4.47172587
 Ti     18.62996659      7.90350134     -2.95859308
 Ti     13.45231604     15.01097520     -4.33059130
 Ti     19.68208592     13.77361279     -2.82609246
  O      3.26852606      1.82019079     -1.86294215
  O      3.82535910      4.70571862     -1.78138385
  O      4.39309785      7.63596672     -1.69232535
  O      5.50261583     13.42841883     -1.55547545
  O      4.94740084     10.53955752     -1.62138049
  O      6.05978499     16.35011020     -1.47348084
  O      9.55098408      0.57238849     -0.34004023
  O     15.83055672     -0.67417827      1.18370589
  O     10.10203226      3.46703911     -0.26778118
  O     16.38791077      2.22807470      1.25692504
  O     10.66314733      6.39215637     -0.18298342
  O     16.95611266      5.14587490      1.33333839
  O     11.78553214     12.18398500     -0.02052908
  O     18.07438583     10.93201625      1.49733736
  O     11.22055826      9.28864433     -0.10244047
  O     17.51291938      8.03725439      1.41662230
  O     12.34763393     15.09663425      0.05903943
  O     18.62853082     13.85501874      1.57672583
  O      1.96643419      3.62197844     -3.58017575
  O      2.50650394      6.52899843     -3.42693651
  O      3.06764550      9.43264872     -3.34683512
  O      4.20104369     15.24054737     -3.26499105
  O      3.64659631     12.33814113     -3.33859360
  O      4.75575759     18.15475069     -3.18856066
  O      8.25288508      2.37558822     -2.06459159
  O     14.48485165      1.13864756     -0.48641061
  O      8.80948707      5.27456165     -1.98728405
  O     15.07840156      4.03390238     -0.46456412
  O      9.36888123      8.18233088     -1.90340064
  O     15.65046010      6.93852216     -0.38733934
  O     10.47330711     14.00180720     -1.67067668
  O     16.74968731     12.74988365     -0.15036031
  O      9.91228854     11.09436258     -1.74927998
  O     16.19218090      9.84104960     -0.23492258
  O     11.02567317     16.89714807     -1.59205413
  O     17.29722732     15.65849111     -0.07820397
  O     -0.55934660      4.12620348     -4.11350025
  O      0.01880903      7.02060406     -4.10634544
  O      0.59688423      9.92261290     -4.02436496
  O      1.70926773     15.73952910     -3.86875450
  O      1.16790584     12.83272544     -3.94134284
  O      2.24288802     18.64658191     -3.72685126
  O      5.78397591      2.85693840     -2.65329670
  O     12.02318755      1.62516297     -1.15477862
  O      6.33893327      5.77307759     -2.57284460
  O     12.58034058      4.53703005     -1.07345366
  O      6.90896159      8.67816236     -2.49858978
  O     13.13967780      7.43679099     -0.99543951
  O      8.02037716     14.47957562     -2.34377721
  O     14.30331543     13.23508322     -0.83780320
  O      7.47423892     11.58033102     -2.42420945
  O     13.71083206     10.34004302     -0.91951482
  O      8.56354856     17.38797773     -2.26183907
  O     14.83225187     16.14346805     -0.76068352
  O      3.90703600      1.75511315     -4.43366437
  O      4.46404710      4.67136916     -4.31556379
  O      5.02065203      7.57806800     -4.23259149
  O      6.15396008     13.37851585     -4.13115322
  O      5.58169255     10.47973035     -4.15861765
  O      6.69423727     16.29323498     -4.00057623
  O     10.10780150      0.52052555     -2.89362767
  O     16.39247756     -0.71516417     -1.37112229
  O     10.74604146      3.42057596     -2.80058748
  O     16.96458247      2.18126283     -1.29892504
  O     11.23225628      6.34984190     -2.73876579
  O     17.51627982      5.09467447     -1.21955205
  O     12.34288149     12.15445946     -2.57782132
  O     18.62939966     10.90409484     -1.06090212
  O     11.78278717      9.24743620     -2.65755066
  O     18.14606290      7.98706862     -1.12085722
  O     12.96575870     15.04681676     -2.48476057
  O     19.18332597     13.81530929     -0.98425420
  O      0.84418363      2.39451096     -5.84861131
  O      1.47150739      5.27936773     -5.75268302
  O      2.04207742      8.18105280     -5.67397154
  O      3.15182177     13.99349659     -5.52697195
  O      2.59440845     11.08666138     -5.60346589
  O      3.70390973     16.90378626     -5.44162997
  O      7.21014688      1.06738656     -4.31794830
  O     13.50031211     -0.13014290     -2.79841017
  O      7.69430063      4.04374924     -4.26526051
  O     14.04699077      2.78174726     -2.72562154
  O      8.33703558      6.94112014     -4.17820528
  O     14.61014548      5.68629262     -2.65667777
  O      9.53016275     12.72928191     -3.99249780
  O     15.81834558     11.48734356     -2.47897808
  O      8.97186947      9.82959169     -4.07715804
  O     15.17900584      8.60207475     -2.57471791
  O     10.01417354     15.64560153     -3.93183683
  O     16.37703868     14.38942004     -2.40037545
  O      5.81298328      2.91645763     -6.08384016
  O      6.38002608      5.85239314     -6.00472731
  O      6.94924865      8.78640926     -5.92418373
  O      8.05152996     14.57164200     -5.77096890
  O      7.53808809     11.66482761     -5.91529135
  O      8.62897734     17.45520308     -5.73995242
  O     12.10234386      1.67068519     -4.56260039
  O     18.38389642      0.42588061     -3.04678561
  O     12.67226233      4.60174770     -4.48251426
  O     18.94547637      3.35991324     -2.96905537
  O     13.25169693      7.48973727     -4.37016069
  O     19.49920817      6.20466260     -2.89014638
  O     14.34495925     13.31695402     -4.24447457
  O     20.61959230     12.07425085     -2.73536259
  O     13.80353303     10.40515725     -4.29444658
  O     20.06610743      9.14304822     -2.81328209
  O     14.91623689     16.21725911     -4.14070413
  O     21.18093069     15.00688864     -2.65536976
  O      3.39332826      3.40238695     -6.66852058
  O      3.96102282      6.33384050     -6.58764088
  O      4.52524878      9.27004707     -6.50954605
  O      5.62932455     15.04964194     -6.35648581
  O      5.06887142     12.12295580     -6.43305448
  O      6.15252810     17.95121585     -6.26123462
  O      9.67899459      2.15607880     -5.14704792
  O     15.96518429      0.91184206     -3.63383892
  O     10.24490183      5.08547449     -5.07154739
  O     16.52795901      3.83246642     -3.55616333
  O     10.96980319      7.99021968     -5.21293577
  O     17.09427467      6.77133772     -3.47495933
  O     12.07792233     13.77487958     -4.98309049
  O     18.35696587     12.52748108     -3.47516631
  O     11.52830962     10.86845108     -5.06131440
  O     17.81136702      9.61355359     -3.54444150
  O     12.59287629     16.67113033     -4.91199266
  O     18.89560160     15.44403763     -3.39382828
  O      1.51043047      2.33089713     -8.29816446
  O      2.06214530      5.22725753     -8.22632509
  O      2.62510321      8.12953755     -8.14439866
  O      3.74313652     13.94707858     -7.99243832
  O      3.17621087     11.04105392     -8.06882285
  O      4.29145981     16.84942397     -7.90462822
  O      7.71700232      1.09938882     -6.80113715
  O     14.07980858     -0.16130574     -5.26696468
  O      8.34360359      3.95575051     -6.71173986
  O     14.56116569      2.73192389     -5.21212800
  O      8.83087685      6.89442862     -6.65341517
  O     15.19776546      5.62746356     -5.12081186
  O      9.94994979     12.71418750     -6.49635376
  O     16.23781200     11.47604573     -4.98138532
  O      9.46332742      9.80347197     -6.55404847
  O     15.75299169      8.55042512     -5.04372929
  O     10.50668977     15.60437563     -6.41157990
  O     16.79697840     14.38537412     -4.90598803
 Au      6.85690982      4.95247113      7.50836165
 Au      9.26146057      6.13968415      8.06516988
 Au      9.22440493      3.29316408      8.10729800
 Au     11.49337267      7.54031655      8.92347825
 Au     11.36843935      4.63918488      9.00781623
 Au      6.95667955      7.62479599      7.38187568
 Au      7.04109675     10.28893864      7.59077038
 Au      9.18153457      8.91301407      8.61624242
