439
Energy = -13269.73490624 au
 Ti      1.57347932      0.72690371      4.68864792
 Ti      1.57733605      3.69037447      4.68277181
 Ti      1.57347114      6.63451961      4.66892730
 Ti      1.58962074     12.54853929      4.67404240
 Ti      1.55568606      9.59008764      4.66722199
 Ti      1.60890974     15.50007518      4.68720651
 Ti      7.86686404      0.72470559      4.73392454
 Ti     14.19027649      0.72375458      4.74366886
 Ti      7.88859656      3.68484127      4.73855156
 Ti     14.19824037      3.67299265      4.74532282
 Ti      7.88922793      6.64581121      4.77139311
 Ti     14.18902888      6.63670737      4.74399634
 Ti      7.86967906     12.53396257      4.77704036
 Ti     14.22277962     12.54416440      4.73604912
 Ti      7.87372411      9.59927208      4.77599783
 Ti     14.17730798      9.59831694      4.74972837
 Ti      7.89464287     15.49399354      4.73529926
 Ti     14.22701205     15.49870324      4.73584877
 Ti      4.72000034      2.17029686      5.29176403
 Ti      4.71826778      5.10678327      5.20850179
 Ti      4.69572167      8.10877115      5.18503323
 Ti      4.72243878     14.01172850      5.29148926
 Ti      4.68933611     11.03577522      5.25634129
 Ti      4.72127389     16.94653160      5.30682911
 Ti     11.03230243      2.14511374      5.29171477
 Ti     17.32549931      2.19482887      5.16405883
 Ti     11.02007168      4.93710371      4.87127684
 Ti     17.29940163      5.14703673      5.14297752
 Ti     11.02858576      8.35588356      4.88650094
 Ti     17.30947356      8.11187017      5.16955004
 Ti     11.04347292     14.07148639      5.28645770
 Ti     17.33361926     14.02525710      5.15283973
 Ti     11.03770126     11.17271798      5.27132133
 Ti     17.32404309     11.06990195      5.13883233
 Ti     11.03965158     16.96869879      5.28991768
 Ti     17.32825306     16.96883938      5.13253002
  O      4.72722674      0.71486399      3.75823340
  O      4.72394511      3.69238645      3.74069414
  O      4.72100992      6.61866236      3.68981890
  O      4.65400077     12.53507460      3.75646813
  O      4.65454754      9.59668970      3.69582194
  O      4.65674113     15.50557788      3.75848028
  O     11.03098384      0.71804744      3.76475123
  O     17.25496228      0.72081635      3.65717014
  O     11.02636805      3.61752705      3.67547489
  O     17.18638056      3.69783717      3.65717188
  O     11.02196621      6.63055958      3.75808233
  O     17.18983717      6.62487737      3.65513304
  O     11.02510606     12.53168520      3.75652090
  O     17.18515100     12.52890536      3.64375380
  O     11.03135412      9.67330436      3.67385940
  O     17.25366402      9.59624155      3.64920933
  O     11.02209272     15.51108653      3.75718157
  O     17.18498744     15.50661831      3.65169219
  O      4.73197279      0.71521925      6.38485900
  O      4.72725451      3.69063491      6.33037549
  O      4.73043730      6.62297919      6.32108515
  O      4.73373709      9.54272380      6.31409849
  O      4.81016912     12.51418295      6.39310473
  O      4.73118718     15.46491375      6.38635961
  O     11.03189930      0.70943027      6.39777241
  O     17.41186174      0.71912708      6.23674028
  O     11.03157359      3.70464942      6.24360794
  O     17.41021320      3.69048661      6.23633512
  O     17.34449028      6.62762482      6.23563135
  O     11.03475951     12.59964691      6.39370069
  O     17.41165786     12.53735467      6.23110647
  O     11.03018497      9.60510343      6.22396161
  O     17.40913199      9.59613185      6.23545977
  O     11.03086854     15.50970702      6.39277697
  O     17.41197858     15.49898313      6.23366900
  O      2.76528793      2.20681062      5.12286003
  O      2.76259318      5.18045023      5.12388774
  O      2.75861502      8.11160924      5.11963899
  O      2.75879379     14.01276269      5.20187907
  O      2.76147035     11.04058006      5.13580801
  O      2.76048996     16.99907887      5.19338755
  O      9.06730427      2.19865281      5.12341773
  O     15.35564315      2.20506090      5.19660831
  O      9.11549901      5.18882183      5.12422017
  O     15.29576800      5.14263153      5.27351479
  O      9.11919770      8.09826274      5.11107011
  O     15.31702895      8.11984338      5.20315699
  O      9.07058908     14.01945300      5.12227882
  O     15.35988344     14.01844307      5.20594117
  O      9.06347001     11.09539903      5.11911495
  O     15.35514495     11.03469834      5.19959156
  O      9.06920321     16.99375882      5.12592718
  O     15.35899097     16.99945706      5.20153978
  O      0.38959353      2.20946930      4.96391477
  O      0.37900134      5.17571896      4.96531506
  O      0.38032939      8.11027502      4.96495150
  O      0.38759386     14.02134544      4.89152424
  O      0.39198599     11.09343083      4.96242893
  O      0.39373110     16.94176362      4.96148481
  O      6.68711544      2.20969072      5.12156951
  O     12.98790214      2.20357048      5.11759624
  O      6.69837564      5.13314447      5.11909681
  O     12.92719612      5.19475484      5.05473220
  O      6.67122914      8.11643057      4.96162009
  O     12.93207216      8.09948401      5.11113131
  O      6.67803867     14.02886953      5.11496062
  O     12.98779403     14.02079712      5.04796991
  O      6.62918719     11.02777101      4.95256562
  O     12.98925541     11.09977063      5.11987150
  O      6.68267269     16.94582445      5.12472744
  O     12.99032921     16.94771090      5.11655057
 Ti      1.57432220      2.20079423      1.49965866
 Ti      1.57547521      5.15700800      1.50539912
 Ti      1.58689382      8.11346287      1.47760040
 Ti      1.55961549     14.02410543      1.50083699
 Ti      1.57365539     11.07512548      1.49759453
 Ti      1.57132016     16.97062028      1.50781452
 Ti      7.87970096      2.21064647      1.50636598
 Ti     14.25016008      2.20166972      1.50196022
 Ti      7.88131267      5.17788199      1.52253028
 Ti     14.24242915      5.16525144      1.51301282
 Ti      7.88427365      8.12351832      1.52941407
 Ti     14.25834706      8.11496088      1.50288377
 Ti      7.87802228     14.00704026      1.51629241
 Ti     14.19732047     14.02005825      1.49420250
 Ti      7.87822132     11.05993940      1.55273754
 Ti     14.25251626     11.06902921      1.51001540
 Ti      7.88300775     16.96584086      1.51355028
 Ti     14.22136356     16.97346898      1.51488847
 Ti      4.72662692      0.72094160      1.92654768
 Ti      4.71624785      3.67273812      1.89857865
 Ti      4.72489209      6.62748919      1.86914841
 Ti      4.70771419     12.55173011      1.92406966
 Ti      4.71482785      9.60122875      1.86285775
 Ti      4.69965606     15.49918824      1.91052787
 Ti     11.04608479      0.72324440      1.93145078
 Ti     17.39234263      0.71898854      1.76598540
 Ti     11.07345329      3.65545318      1.60946684
 Ti     17.35604182      3.68415289      1.76882103
 Ti     11.04708620      6.62972319      1.86005068
 Ti     17.38494502      6.63552554      1.78040554
 Ti     11.03062810     12.54766499      1.92623618
 Ti     17.34525537     12.55015414      1.76964014
 Ti     11.09382525      9.61009080      1.63678689
 Ti     17.40115030      9.59516392      1.77369492
 Ti     11.04735100     15.50655741      1.91193969
 Ti     17.33536664     15.49712842      1.75962444
  O      1.65208715      0.71818044      2.89995026
  O      1.65366448      3.69028521      2.89799618
  O      1.65577355      6.62427423      2.88429172
  O      1.65705639     12.53675869      2.88953316
  O      1.65328750      9.60077348      2.88695949
  O      1.66144507     15.50619450      2.89557911
  O      7.87536898      0.71958171      2.95477110
  O     14.25836103      0.72647721      2.95799175
  O      7.88027412      3.69347102      2.95800576
  O     14.26067587      3.69320600      2.96014246
  O      7.88318002      6.61778974      2.96141049
  O     14.26046586      6.62441455      2.95990068
  O      7.87979568     12.53625705      2.96170854
  O     14.26097658     12.52628154      2.95262667
  O      7.88817192      9.59485015      2.95718761
  O     14.25577345      9.59946695      2.96162078
  O      7.87840432     15.50680791      2.95490055
  O     14.26210078     15.50876928      2.95380632
  O      5.96666278      2.20282451      1.68225311
  O      5.96432109      5.13585265      1.67290261
  O      5.96684129      8.11391561      1.67686097
  O      5.94824585     14.02458059      1.68704041
  O      5.95211429     11.08554346      1.68178514
  O      5.95174290     16.95586365      1.68457001
  O     12.29225365      2.20436844      1.69466343
  O     18.62525294      2.21206353      1.83607078
  O     12.28909468      5.13981503      1.75378109
  O     18.61853382      5.14160126      1.83433611
  O     12.29324518      8.10965671      1.75784055
  O     18.64469647      8.10854983      1.83578127
  O     12.28686883     14.01942993      1.76194882
  O     18.60931687     14.02107966      1.83519068
  O     12.28964753     11.08495498      1.69372244
  O     18.62174913     11.09217962      1.83262270
  O     12.28891157     16.99141350      1.76134887
  O     18.61793344     16.94862413      1.83490691
  O      3.46930013      2.20069118      1.68680796
  O      3.47047461      5.13437822      1.67827410
  O      3.46869899      8.11008462      1.67787254
  O      3.46230975     14.02113248      1.68064712
  O      3.46649121     11.08845969      1.67671452
  O      3.46825003     16.99709640      1.68414775
  O      9.78526830      2.20783158      1.68325582
  O     16.13708878      2.20156416      1.53087642
  O      9.79920639      5.13974217      1.68178013
  O     16.13780755      5.17994082      1.52589750
  O      9.80183232      8.11171505      1.68381729
  O     16.14371559      8.11424867      1.53028996
  O      9.78460464     14.02139509      1.68940101
  O     16.10877859     14.01910243      1.52989308
  O      9.79509299     11.04338585      1.68169668
  O     16.13957640     11.03998676      1.52620480
  O      9.78754163     16.99133516      1.69044001
  O     16.13159689     16.99668174      1.53267729
  O      1.42437841      0.72047516      0.31834920
  O      1.42599836      3.68108937      0.31700327
  O      1.42305176      6.62281547      0.31815440
  O      1.42909380     12.54687832      0.30956545
  O      1.42481516      9.60390062      0.31436431
  O      1.42929382     15.50449713      0.31442979
  O      7.86992710      0.72651390      0.38302597
  O     14.17754868      0.72407685      0.38984403
  O      7.87638992      3.69051465      0.37332116
  O     14.18019356      3.69359583      0.38765207
  O      7.87741073      6.63225355      0.37815213
  O     14.17783921      6.63102896      0.38666551
  O      7.87183437     12.53168725      0.38853145
  O     14.17937355     12.53443848      0.38596357
  O      7.87384365      9.59545563      0.38540892
  O     14.17655412      9.59005219      0.38686489
  O      7.86873813     15.50065214      0.38658125
  O     14.17541265     15.50776783      0.38769954
 Ti      1.21202878      0.71942337     -1.75752175
 Ti      1.21975963      3.67805472     -1.74110369
 Ti      1.22111716      6.63676035     -1.75533981
 Ti      1.22849042     12.55412208     -1.76041713
 Ti      1.22816291      9.59460746     -1.76515972
 Ti      1.22709747     15.51555674     -1.75892704
 Ti      7.81592619      0.70815691     -1.75287415
 Ti     14.38158119      0.71494161     -1.74474248
 Ti      7.80441092      3.67854378     -1.75257935
 Ti     14.37667801      3.68492053     -1.74500898
 Ti      7.81736303      6.63892084     -1.77625323
 Ti     14.39331679      6.64344134     -1.77549943
 Ti      7.83696388     12.55658465     -1.73913837
 Ti     14.41282109     12.55049553     -1.76073407
 Ti      7.83299588      9.59648136     -1.75768511
 Ti     14.39561168      9.59560913     -1.76648022
 Ti      7.81589198     15.51260085     -1.75790650
 Ti     14.40934091     15.51010728     -1.75630241
 Ti      4.52199207      2.19050397     -1.59161227
 Ti      4.52373824      5.15426536     -1.55230957
 Ti      4.52843688      8.11879900     -1.54955447
 Ti      4.52242957     14.02788300     -1.58772473
 Ti      4.53079138     11.07968169     -1.59126437
 Ti      4.51358792     17.00203362     -1.57907569
 Ti     11.08823270      2.18916184     -1.58733264
 Ti     17.65604673      2.19783817     -1.55248141
 Ti     11.08432363      5.15913192     -1.58883355
 Ti     17.66893902      5.16127300     -1.56595475
 Ti     11.08575948      8.12733818     -1.56890861
 Ti     17.68745030      8.12028738     -1.56060303
 Ti     11.11629116     14.03082356     -1.56258642
 Ti     17.68818458     14.03100085     -1.55812337
 Ti     11.09881007     11.08605676     -1.56207204
 Ti     17.69462097     11.07650451     -1.55489374
 Ti     11.10410228     16.98111534     -1.56242844
 Ti     17.67622831     16.99175535     -1.55176830
 Ti      1.30369970      2.19477698     -5.04772806
 Ti      1.31326858      5.12839073     -5.06048784
 Ti      1.30359635      8.09782824     -5.06656126
 Ti      1.29820627     14.00489532     -5.04681690
 Ti      1.30725828     11.07251972     -5.06745828
 Ti      1.18973891     16.97985252     -5.06112726
 Ti      7.88664190      2.17917051     -5.02767245
 Ti     14.46226053      2.18925818     -5.03217217
 Ti      7.90023798      5.11224747     -5.08518336
 Ti     14.48015323      5.11228181     -5.08395591
 Ti      7.89220098      8.10050586     -5.10119657
 Ti     14.47471673      8.10258285     -5.09878726
 Ti      7.90136460     14.00015542     -5.07435167
 Ti     14.48080143     14.05402072     -5.10816406
 Ti      7.90055760     11.08069982     -5.06893140
 Ti     14.49247153     11.08398312     -5.09432306
 Ti      7.79144382     16.97928002     -5.08718989
 Ti     14.46501303     16.99934982     -5.08067258
 Ti      4.50271475      0.67853286     -4.94553993
 Ti      4.59738169      3.66118026     -4.86025121
 Ti      4.58795066      6.64821928     -4.84268471
 Ti      4.60536881     12.54970432     -4.94445295
 Ti      4.55390161      9.59821891     -4.86271729
 Ti      4.49358231     15.51842562     -4.83720531
 Ti     11.07892972      0.67118858     -4.85049841
 Ti     17.67039963      0.74986841     -4.84503371
 Ti     11.18252030      3.65473495     -4.85592691
 Ti     17.76770073      3.67433079     -4.85125511
 Ti     11.15972404      6.63934225     -4.84267761
 Ti     17.67063633      6.63780116     -4.84905131
 Ti     11.17112152     12.54017942     -4.85760201
 Ti     17.76086193     12.53997692     -4.85494921
 Ti     11.16798488      9.57195295     -4.84076381
 Ti     17.76496603      9.55830793     -4.84740701
 Ti     11.15998408     15.52326962     -4.85603701
 Ti     17.68720513     15.52292102     -4.85539531
  O      4.50839834      0.71926992     -0.34010255
  O      4.51180337      3.65916205     -0.33721896
  O      4.51887021      6.64521145     -0.32875073
  O      4.51161413     12.54452216     -0.34718719
  O      4.51399177      9.60207771     -0.33527885
  O      4.50858683     15.51999133     -0.34330149
  O     11.09212688      0.71909360     -0.33393099
  O     17.67306178      0.71960864     -0.32624871
  O     11.08613898      3.66660444     -0.33859022
  O     17.67187301      3.67579707     -0.33129425
  O     11.08687446      6.64625509     -0.33282806
  O     17.67882754      6.64937818     -0.33545907
  O     11.09791677     12.54805853     -0.32934449
  O     17.68737917     12.54486418     -0.32962540
  O     11.08851999      9.59698890     -0.33086711
  O     17.68149603      9.59505575     -0.33078478
  O     11.10075215     15.51551655     -0.32912311
  O     17.68061647     15.52098124     -0.32755178
  O      2.52847458      2.19707998     -1.67679718
  O      2.52832193      5.15681189     -1.59992168
  O      2.53206906      8.11526864     -1.59912302
  O      2.53200488     14.03278665     -1.67630701
  O      2.53590867     11.07698556     -1.67230927
  O      2.52677125     17.00029427     -1.67740184
  O      9.11406052      2.19884860     -1.67864147
  O     15.66027481      2.20128230     -1.60682690
  O      9.11371744      5.15178411     -1.67959564
  O     15.68312353      5.15606203     -1.67034020
  O      9.11588751      8.11405535     -1.67463941
  O     15.69644398      8.11745240     -1.67484631
  O      9.12073918     14.04147867     -1.59814875
  O     15.69885201     14.03604208     -1.59316166
  O      9.11817370     11.07935990     -1.59758737
  O     15.69852913     11.07306338     -1.59923402
  O      9.11734449     16.99008436     -1.59691019
  O     15.68684695     16.99659036     -1.59685671
  O     -0.10072615      2.20175982     -1.60244580
  O     -0.09579378      5.15240906     -1.67670630
  O     -0.07514011      8.11249668     -1.67802483
  O     -0.07997509     14.03686181     -1.67843142
  O     -0.06251463     11.07923762     -1.67655237
  O     -0.08890155     16.99510939     -1.61109102
  O      6.53071700      2.19032508     -1.67172479
  O     13.06451304      2.19708269     -1.67898259
  O      6.52627547      5.15988572     -1.66892877
  O     13.06317794      5.16288646     -1.67592260
  O      6.53688575      8.12127107     -1.67584601
  O     13.06545909      8.11712948     -1.67680757
  O      6.53388118     14.03021317     -1.67708590
  O     13.11354058     14.03292781     -1.68743175
  O      6.54354296     11.07890128     -1.68159552
  O     13.07787612     11.07697217     -1.68239403
  O      6.51999909     16.98999569     -1.67025951
  O     13.08496487     16.98988190     -1.68200143
  O      4.53786602      0.70758103     -2.98954359
  O      4.54403684      3.67864201     -2.95059834
  O      4.54353763      6.63931244     -2.94590286
  O      4.54931403     12.55001857     -3.00414110
  O      4.54615327      9.59563606     -2.95107735
  O      4.54267882     15.51674688     -2.94921836
  O     11.04506561      0.70543087     -2.94757649
  O     17.62852426      0.71755324     -2.94208397
  O     11.12606359      3.67523189     -2.95208329
  O     17.64228330      3.67077609     -2.95163973
  O     11.04922967      6.64422526     -2.95127756
  O     17.63499851      6.63701585     -2.94918907
  O     11.04627626     12.55632668     -2.94631192
  O     17.63298724     12.55424168     -2.94694517
  O     11.04425365      9.59476593     -2.94705195
  O     17.71067856      9.59785626     -2.94637882
  O     11.11407381     15.51567955     -2.94738607
  O     17.62761844     15.51867240     -2.94770046
  O      1.16730567      0.72032719     -3.64614811
  O      1.24142946      3.67323106     -3.64559693
  O      1.25422791      6.63149921     -3.64836590
  O      1.24573761     12.55074781     -3.65661944
  O      1.24698371      9.58996293     -3.65482874
  O      1.24079256     15.51415465     -3.64850943
  O      7.84755798      0.65822843     -3.65317225
  O     14.42834009      0.70876926     -3.65114366
  O      7.75772666      3.67282632     -3.65992126
  O     14.41503644      3.67239459     -3.65396500
  O      7.84214381      6.64068554     -3.67133771
  O     14.41796467      6.63181367     -3.66446899
  O      7.92675950     12.55284276     -3.66165811
  O     14.51267915     12.55925359     -3.66583031
  O      7.92393007      9.59868971     -3.66747811
  O     14.42720808      9.60368487     -3.66342736
  O      7.85000805     15.50868029     -3.66170648
  O     14.51404225     15.51566398     -3.66595195
  O      5.75671982      2.16324301     -5.01435958
  O      5.75975303      5.15448081     -5.01530183
  O      5.76556015      8.14428322     -5.01539114
  O      5.75653567     14.03557632     -5.01636649
  O      5.78411909     11.08130282     -5.09072135
  O      5.76834411     16.97608362     -5.06744863
  O     12.34626893      2.16631666     -5.01136403
  O     18.92693223      2.16872457     -5.01182269
  O     12.35319463      5.15333855     -5.01211275
  O     18.92479343      5.15702773     -5.01288125
  O     12.38480073      8.10072512     -4.98445473
  O     18.93235633      8.05623231     -5.01259674
  O     12.35286853     14.03080392     -5.00936198
  O     18.92498483     14.03379252     -5.01470270
  O     12.37642473     11.06886562     -4.98555887
  O     18.93427013     11.04978872     -5.01564865
  O     12.37237753     16.98851532     -4.98794386
  O     18.92340113     17.02074082     -5.01352979
  O      3.22044698      2.16860736     -5.01483320
  O      3.22535877      5.15561492     -5.01428870
  O      3.22541749      8.14656077     -5.01556500
  O      3.21913862     14.03265332     -5.01720782
  O      3.22122825     11.05180552     -5.01514675
  O      3.19055941     16.98232112     -4.99293827
  O      9.80662525      2.17046481     -5.01076665
  O     16.39100653      2.17423529     -5.01482192
  O      9.80898175      5.15497252     -5.01507870
  O     16.39253663      5.14959923     -5.01645290
  O      9.91779221      8.13950322     -5.26757440
  O     16.39480123      8.14363750     -5.01513968
  O      9.93210408     14.03336686     -5.19536888
  O     16.50904620     14.03254601     -5.20296988
  O      9.94031990     11.07440600     -5.19705723
  O     16.52457610     11.06721736     -5.19701748
  O      9.89109481     16.97561302     -5.19278317
  O     16.48915131     16.99946280     -5.19553072
  O      1.25088733      0.71851802     -6.18411049
  O      1.24511498      3.66782190     -6.18930110
  O      1.25127594      6.62532430     -6.18717196
  O      1.25087407     12.55127117     -6.19242414
  O      1.24291261      9.58949157     -6.18831295
  O      1.24441005     15.50623474     -6.18118684
  O      7.75313584      0.71934483     -6.18526678
  O     14.41859379      0.72195880     -6.18694327
  O      7.83046563      3.64396538     -6.19141794
  O     14.34234357      3.65447390     -6.19246203
  O      7.75205245      6.62230557     -6.19408800
  O     14.42223371      6.61949175     -6.19834840
  O      7.75339785     12.55076102     -6.19457837
  O     14.33862573     12.56087697     -6.19719842
  O      7.82727799      9.60001139     -6.19093921
  O     14.41597948      9.59571130     -6.19876855
  O      7.75657171     15.49529594     -6.18846092
  O     14.33832771     15.52441085     -6.20041601
 Au      6.51888579      6.91035729      7.74801574
 Au      6.95859128     12.00298222      7.68199197
 Au      9.41302662     11.35371143      8.50117838
 Au     11.12783701      8.85464114      8.60748233
 Au      7.64971178      9.36185728      7.88996181
 Au     11.91365844     11.25233397      9.44075403
 Au      9.13501199      7.00153342      8.02473303
 Au     11.68180908      6.41066263      7.47660601
