439
Energy = -13269.72197453 au
 Ti      1.56877626      0.72715866      4.67533309
 Ti      1.58465802      3.69072648      4.68062190
 Ti      1.58075036      6.63846263      4.67073843
 Ti      1.58966897     12.54814969      4.67784215
 Ti      1.56622443      9.59227805      4.67016633
 Ti      1.61050244     15.49940017      4.67745599
 Ti      7.86592561      0.72532046      4.73422873
 Ti     14.18864546      0.72039329      4.74144813
 Ti      7.88581857      3.68101661      4.73762369
 Ti     14.20742637      3.65549362      4.72955379
 Ti      7.90692067      6.64463425      4.78433006
 Ti     14.16945127      6.62804195      4.76934988
 Ti      7.87753160     12.54925970      4.73697452
 Ti     14.22892849     12.54139919      4.72481687
 Ti      7.87945305      9.60919355      4.77470025
 Ti     14.18328388      9.59496445      4.73762209
 Ti      7.89621974     15.49780205      4.73575953
 Ti     14.23411477     15.49743464      4.73508517
 Ti      4.71738578      2.19819891      5.31030124
 Ti      4.72908914      5.13906704      5.28851701
 Ti      4.71712843      8.09060296      5.27264384
 Ti      4.72577986     14.03502206      5.30845263
 Ti      4.70803773     11.10268326      5.26479493
 Ti      4.72247339     16.97359658      5.29189866
 Ti     11.02979102      2.13594583      5.29551592
 Ti     17.32983514      2.19863468      5.16110457
 Ti     11.02339928      4.89697266      4.82093926
 Ti     17.31694128      5.14518202      5.13543199
 Ti     11.03336741      8.36527439      4.80104335
 Ti     17.31192312      8.11629229      5.16053013
 Ti     11.05496432     14.07546803      5.28377971
 Ti     17.33517582     14.03138930      5.15410949
 Ti     11.04217680     11.18014223      5.26486322
 Ti     17.32517745     11.07674657      5.13873951
 Ti     11.04190639     16.96703976      5.28687673
 Ti     17.32923296     16.97566433      5.13319618
  O      4.72976114      0.71840636      3.75579968
  O      4.72649034      3.69706005      3.75628769
  O      4.72389630      6.62543451      3.75444173
  O      4.71718543     12.53330020      3.75746768
  O      4.72122877      9.59877285      3.74487226
  O      4.66053388     15.50193135      3.75512105
  O     11.03098711      0.71488414      3.76638668
  O     17.25668286      0.72063742      3.65718588
  O     10.95982051      3.55397580      3.66952536
  O     17.24743430      3.69403667      3.65942982
  O     10.96563542      6.61974169      3.75717824
  O     17.24566609      6.62407236      3.62557068
  O     11.02099112     12.53545648      3.75562398
  O     17.18513560     12.52673367      3.64660439
  O     11.02889452      9.68559185      3.61712927
  O     17.25211276      9.59338167      3.64446370
  O     11.02343374     15.51025370      3.75826756
  O     17.18584078     15.50561394      3.65280415
  O      4.72992569      0.72308642      6.38423384
  O      4.72720212      3.69073312      6.38653497
  O      4.80378639      6.63714661      6.37902016
  O      4.80662444      9.59346369      6.39329470
  O      4.73114593     12.53109777      6.37999250
  O      4.72864274     15.50503556      6.38606528
  O     11.03177629      0.70554281      6.40073277
  O     17.41344326      0.72033132      6.23684586
  O     11.03144513      3.71058117      6.23620452
  O     17.40935031      3.69407229      6.23674721
  O     17.34140264      6.62796722      6.22713095
  O     11.09524077     12.59590846      6.39705052
  O     17.41170003     12.53688636      6.23191665
  O     11.03254626      9.58915979      6.16271610
  O     17.40855228      9.59258660      6.23153129
  O     11.03147105     15.50881359      6.39325852
  O     17.41219216     15.50084780      6.23422810
  O      2.76682008      2.20752216      5.12253219
  O      2.77182482      5.18138118      5.13130747
  O      2.77638375      8.11813137      5.12922223
  O      2.75880443     14.01599288      5.19716539
  O      2.77050345     11.03612766      5.13008465
  O      2.76626990     17.00074890      5.12833841
  O      9.06366778      2.19462702      5.12859979
  O     15.36034536      2.19858000      5.19716674
  O      9.11924694      5.17748852      5.11922351
  O     15.30744019      5.13853286      5.21194340
  O      9.12601340      8.11426853      5.04584597
  O     15.31080313      8.11114609      5.20112377
  O      9.07979376     14.02284825      5.12773581
  O     15.36186848     14.01870683      5.20534790
  O      9.07400667     11.09749500      5.11557440
  O     15.35435607     11.03461697      5.20133148
  O      9.07017059     16.99380105      5.12632832
  O     15.35994249     16.99961136      5.20197920
  O      0.39231465      2.21095067      4.96474870
  O      0.38893342      5.18229809      4.96801475
  O      0.38727955      8.11089982      4.96647035
  O      0.38729245     14.01978895      4.89060800
  O      0.39379917     11.09157316      4.96314373
  O      0.39471581     16.94218855      4.96259633
  O      6.68436924      2.20989634      5.12257512
  O     12.98548470      2.19918668      5.11744523
  O      6.70044219      5.13068357      5.12428623
  O     12.92118802      5.12630330      4.95930420
  O      6.68828043      8.11426648      5.03263748
  O     12.92045934      8.10335278      5.03577284
  O      6.68487926     14.02655647      5.12357009
  O     12.99237897     14.02137126      5.04465455
  O      6.67209994     11.09397927      5.03720344
  O     12.98570736     11.09537915      5.05185170
  O      6.68509278     16.94704669      5.12337744
  O     12.99072023     16.94503385      5.11686267
 Ti      1.58843475      2.20133569      1.48873442
 Ti      1.58258959      5.15958519      1.50427133
 Ti      1.58649411      8.11409185      1.47565698
 Ti      1.56158577     14.02197137      1.49932163
 Ti      1.57747677     11.07376675      1.49939753
 Ti      1.57421060     16.96970363      1.50401466
 Ti      7.87765093      2.21284562      1.50498907
 Ti     14.25881570      2.20024535      1.49156371
 Ti      7.87626886      5.17938915      1.52724634
 Ti     14.25078660      5.15856298      1.52245701
 Ti      7.87906692      8.11130986      1.53525360
 Ti     14.25970153      8.09726708      1.51720450
 Ti      7.88160594     14.01385956      1.50706268
 Ti     14.20115011     14.01579057      1.49352275
 Ti      7.87956217     11.05228851      1.53041621
 Ti     14.25375864     11.05302865      1.49301898
 Ti      7.88280990     16.97139785      1.51570652
 Ti     14.22453392     16.97118584      1.51623218
 Ti      4.72832162      0.72293411      1.92775826
 Ti      4.72322683      3.68134163      1.92301259
 Ti      4.71736188      6.63616089      1.92062709
 Ti      4.71813875     12.55183282      1.91468521
 Ti      4.72082828      9.60184262      1.92245924
 Ti      4.70188915     15.49974400      1.91323731
 Ti     11.04673214      0.72112384      1.93102907
 Ti     17.39487996      0.71743797      1.76372302
 Ti     11.07240130      3.64482687      1.59985259
 Ti     17.38947475      3.67382776      1.76378199
 Ti     11.03961647      6.62422116      1.84219074
 Ti     17.38473820      6.62814935      1.76669206
 Ti     11.03211696     12.54707075      1.92406137
 Ti     17.34731862     12.54759573      1.76960831
 Ti     11.09537606      9.61085645      1.61517719
 Ti     17.40458980      9.59118929      1.77047833
 Ti     11.05053117     15.50598681      1.90947218
 Ti     17.33864685     15.49626872      1.76013020
  O      1.65260735      0.71853310      2.89125127
  O      1.65652360      3.69107883      2.89755129
  O      1.65755414      6.62598923      2.88606692
  O      1.65854448     12.53684894      2.89190326
  O      1.65447093      9.60031248      2.88853029
  O      1.66026436     15.50428831      2.88911688
  O      7.87616969      0.72021067      2.95442071
  O     14.25871092      0.72107303      2.95704228
  O      7.87857493      3.69396353      2.95660607
  O     14.26357718      3.63622641      2.94890731
  O      7.88083357      6.61934819      2.96102945
  O     14.26257540      6.61941524      2.96468322
  O      7.88228903     12.53820916      2.94922424
  O     14.26356367     12.52579525      2.94532211
  O      7.87987672      9.60124140      2.96246105
  O     14.25936848      9.59909968      2.95442498
  O      7.87931071     15.50617075      2.95520751
  O     14.26318246     15.50762357      2.95308620
  O      5.96715254      2.20592054      1.68293931
  O      5.95776617      5.16785687      1.67875384
  O      5.96176084      8.11254684      1.68303565
  O      5.95838432     14.02471430      1.68477165
  O      5.95851794     11.08386574      1.68086394
  O      5.95582838     16.95628671      1.68473425
  O     12.29125070      2.20278572      1.69210195
  O     18.64738919      2.20449244      1.83463258
  O     12.28694315      5.13211770      1.76116609
  O     18.63364851      5.14255390      1.82606463
  O     12.29028628      8.10417278      1.75832765
  O     18.64862843      8.10850096      1.83138854
  O     12.28785682     14.01915907      1.76148785
  O     18.61126271     14.01976882      1.83511316
  O     12.29174101     11.08747994      1.68772844
  O     18.62447489     11.09117686      1.83296169
  O     12.28913264     16.99044912      1.76118822
  O     18.62156928     16.94774481      1.83449319
  O      3.47417545      2.20447954      1.68876870
  O      3.47536322      5.14296539      1.68476744
  O      3.47191978      8.11371738      1.68619997
  O      3.46562589     14.01860850      1.68212401
  O      3.47166502     11.08583821      1.68467821
  O      3.46996938     16.99621127      1.68437664
  O      9.78270398      2.20380945      1.67886730
  O     16.14615931      2.20121105      1.52973793
  O      9.79612464      5.13635937      1.67980676
  O     16.14196565      5.13767852      1.53069266
  O      9.79584611      8.11081478      1.68138236
  O     16.14566725      8.11121357      1.52963480
  O      9.78644137     14.02161504      1.68877289
  O     16.11496259     14.01851615      1.52933969
  O      9.79313731     11.04614004      1.67750755
  O     16.13950799     11.03838224      1.52474266
  O      9.78886128     16.98953380      1.69100348
  O     16.13550566     16.99701825      1.53222301
  O      1.42578456      0.71903220      0.31516211
  O      1.42835321      3.68393815      0.31506195
  O      1.42464837      6.62433431      0.31757041
  O      1.43002102     12.54335647      0.31026344
  O      1.42564538      9.60469279      0.31446380
  O      1.43000924     15.50249480      0.31303721
  O      7.86980511      0.72681406      0.38233736
  O     14.17813551      0.71743260      0.38715543
  O      7.87432508      3.69305454      0.37488581
  O     14.17839618      3.69337059      0.38432679
  O      7.87779322      6.63260357      0.37764996
  O     14.18025019      6.62061886      0.39084444
  O      7.87177222     12.53293203      0.38346151
  O     14.18018906     12.53265802      0.38350480
  O      7.87370643      9.58816533      0.38304695
  O     14.17532014      9.56039470      0.38500079
  O      7.87041587     15.50425598      0.38495524
  O     14.17631690     15.50634931      0.38795603
 Ti      1.21202878      0.71942337     -1.75752175
 Ti      1.21975963      3.67805472     -1.74110369
 Ti      1.22111716      6.63676035     -1.75533981
 Ti      1.22849042     12.55412208     -1.76041713
 Ti      1.22816291      9.59460746     -1.76515972
 Ti      1.22709747     15.51555674     -1.75892704
 Ti      7.81592619      0.70815691     -1.75287415
 Ti     14.38158119      0.71494161     -1.74474248
 Ti      7.80441092      3.67854378     -1.75257935
 Ti     14.37667801      3.68492053     -1.74500898
 Ti      7.81736303      6.63892084     -1.77625323
 Ti     14.39331679      6.64344134     -1.77549943
 Ti      7.83696388     12.55658465     -1.73913837
 Ti     14.41282109     12.55049553     -1.76073407
 Ti      7.83299588      9.59648136     -1.75768511
 Ti     14.39561168      9.59560913     -1.76648022
 Ti      7.81589198     15.51260085     -1.75790650
 Ti     14.40934091     15.51010728     -1.75630241
 Ti      4.52199207      2.19050397     -1.59161227
 Ti      4.52373824      5.15426536     -1.55230957
 Ti      4.52843688      8.11879900     -1.54955447
 Ti      4.52242957     14.02788300     -1.58772473
 Ti      4.53079138     11.07968169     -1.59126437
 Ti      4.51358792     17.00203362     -1.57907569
 Ti     11.08823270      2.18916184     -1.58733264
 Ti     17.65604673      2.19783817     -1.55248141
 Ti     11.08432363      5.15913192     -1.58883355
 Ti     17.66893902      5.16127300     -1.56595475
 Ti     11.08575948      8.12733818     -1.56890861
 Ti     17.68745030      8.12028738     -1.56060303
 Ti     11.11629116     14.03082356     -1.56258642
 Ti     17.68818458     14.03100085     -1.55812337
 Ti     11.09881007     11.08605676     -1.56207204
 Ti     17.69462097     11.07650451     -1.55489374
 Ti     11.10410228     16.98111534     -1.56242844
 Ti     17.67622831     16.99175535     -1.55176830
 Ti      1.30369970      2.19477698     -5.04772806
 Ti      1.31326858      5.12839073     -5.06048784
 Ti      1.30359635      8.09782824     -5.06656126
 Ti      1.29820627     14.00489532     -5.04681690
 Ti      1.30725828     11.07251972     -5.06745828
 Ti      1.18973891     16.97985252     -5.06112726
 Ti      7.88664190      2.17917051     -5.02767245
 Ti     14.46226053      2.18925818     -5.03217217
 Ti      7.90023798      5.11224747     -5.08518336
 Ti     14.48015323      5.11228181     -5.08395591
 Ti      7.89220098      8.10050586     -5.10119657
 Ti     14.47471673      8.10258285     -5.09878726
 Ti      7.90136460     14.00015542     -5.07435167
 Ti     14.48080143     14.05402072     -5.10816406
 Ti      7.90055760     11.08069982     -5.06893140
 Ti     14.49247153     11.08398312     -5.09432306
 Ti      7.79144382     16.97928002     -5.08718989
 Ti     14.46501303     16.99934982     -5.08067258
 Ti      4.50271475      0.67853286     -4.94553993
 Ti      4.59738169      3.66118026     -4.86025121
 Ti      4.58795066      6.64821928     -4.84268471
 Ti      4.60536881     12.54970432     -4.94445295
 Ti      4.55390161      9.59821891     -4.86271729
 Ti      4.49358231     15.51842562     -4.83720531
 Ti     11.07892972      0.67118858     -4.85049841
 Ti     17.67039963      0.74986841     -4.84503371
 Ti     11.18252030      3.65473495     -4.85592691
 Ti     17.76770073      3.67433079     -4.85125511
 Ti     11.15972404      6.63934225     -4.84267761
 Ti     17.67063633      6.63780116     -4.84905131
 Ti     11.17112152     12.54017942     -4.85760201
 Ti     17.76086193     12.53997692     -4.85494921
 Ti     11.16798488      9.57195295     -4.84076381
 Ti     17.76496603      9.55830793     -4.84740701
 Ti     11.15998408     15.52326962     -4.85603701
 Ti     17.68720513     15.52292102     -4.85539531
  O      4.50839834      0.71926992     -0.34010255
  O      4.51180337      3.65916205     -0.33721896
  O      4.51887021      6.64521145     -0.32875073
  O      4.51161413     12.54452216     -0.34718719
  O      4.51399177      9.60207771     -0.33527885
  O      4.50858683     15.51999133     -0.34330149
  O     11.09212688      0.71909360     -0.33393099
  O     17.67306178      0.71960864     -0.32624871
  O     11.08613898      3.66660444     -0.33859022
  O     17.67187301      3.67579707     -0.33129425
  O     11.08687446      6.64625509     -0.33282806
  O     17.67882754      6.64937818     -0.33545907
  O     11.09791677     12.54805853     -0.32934449
  O     17.68737917     12.54486418     -0.32962540
  O     11.08851999      9.59698890     -0.33086711
  O     17.68149603      9.59505575     -0.33078478
  O     11.10075215     15.51551655     -0.32912311
  O     17.68061647     15.52098124     -0.32755178
  O      2.52847458      2.19707998     -1.67679718
  O      2.52832193      5.15681189     -1.59992168
  O      2.53206906      8.11526864     -1.59912302
  O      2.53200488     14.03278665     -1.67630701
  O      2.53590867     11.07698556     -1.67230927
  O      2.52677125     17.00029427     -1.67740184
  O      9.11406052      2.19884860     -1.67864147
  O     15.66027481      2.20128230     -1.60682690
  O      9.11371744      5.15178411     -1.67959564
  O     15.68312353      5.15606203     -1.67034020
  O      9.11588751      8.11405535     -1.67463941
  O     15.69644398      8.11745240     -1.67484631
  O      9.12073918     14.04147867     -1.59814875
  O     15.69885201     14.03604208     -1.59316166
  O      9.11817370     11.07935990     -1.59758737
  O     15.69852913     11.07306338     -1.59923402
  O      9.11734449     16.99008436     -1.59691019
  O     15.68684695     16.99659036     -1.59685671
  O     -0.10072615      2.20175982     -1.60244580
  O     -0.09579378      5.15240906     -1.67670630
  O     -0.07514011      8.11249668     -1.67802483
  O     -0.07997509     14.03686181     -1.67843142
  O     -0.06251463     11.07923762     -1.67655237
  O     -0.08890155     16.99510939     -1.61109102
  O      6.53071700      2.19032508     -1.67172479
  O     13.06451304      2.19708269     -1.67898259
  O      6.52627547      5.15988572     -1.66892877
  O     13.06317794      5.16288646     -1.67592260
  O      6.53688575      8.12127107     -1.67584601
  O     13.06545909      8.11712948     -1.67680757
  O      6.53388118     14.03021317     -1.67708590
  O     13.11354058     14.03292781     -1.68743175
  O      6.54354296     11.07890128     -1.68159552
  O     13.07787612     11.07697217     -1.68239403
  O      6.51999909     16.98999569     -1.67025951
  O     13.08496487     16.98988190     -1.68200143
  O      4.53786602      0.70758103     -2.98954359
  O      4.54403684      3.67864201     -2.95059834
  O      4.54353763      6.63931244     -2.94590286
  O      4.54931403     12.55001857     -3.00414110
  O      4.54615327      9.59563606     -2.95107735
  O      4.54267882     15.51674688     -2.94921836
  O     11.04506561      0.70543087     -2.94757649
  O     17.62852426      0.71755324     -2.94208397
  O     11.12606359      3.67523189     -2.95208329
  O     17.64228330      3.67077609     -2.95163973
  O     11.04922967      6.64422526     -2.95127756
  O     17.63499851      6.63701585     -2.94918907
  O     11.04627626     12.55632668     -2.94631192
  O     17.63298724     12.55424168     -2.94694517
  O     11.04425365      9.59476593     -2.94705195
  O     17.71067856      9.59785626     -2.94637882
  O     11.11407381     15.51567955     -2.94738607
  O     17.62761844     15.51867240     -2.94770046
  O      1.16730567      0.72032719     -3.64614811
  O      1.24142946      3.67323106     -3.64559693
  O      1.25422791      6.63149921     -3.64836590
  O      1.24573761     12.55074781     -3.65661944
  O      1.24698371      9.58996293     -3.65482874
  O      1.24079256     15.51415465     -3.64850943
  O      7.84755798      0.65822843     -3.65317225
  O     14.42834009      0.70876926     -3.65114366
  O      7.75772666      3.67282632     -3.65992126
  O     14.41503644      3.67239459     -3.65396500
  O      7.84214381      6.64068554     -3.67133771
  O     14.41796467      6.63181367     -3.66446899
  O      7.92675950     12.55284276     -3.66165811
  O     14.51267915     12.55925359     -3.66583031
  O      7.92393007      9.59868971     -3.66747811
  O     14.42720808      9.60368487     -3.66342736
  O      7.85000805     15.50868029     -3.66170648
  O     14.51404225     15.51566398     -3.66595195
  O      5.75671982      2.16324301     -5.01435958
  O      5.75975303      5.15448081     -5.01530183
  O      5.76556015      8.14428322     -5.01539114
  O      5.75653567     14.03557632     -5.01636649
  O      5.78411909     11.08130282     -5.09072135
  O      5.76834411     16.97608362     -5.06744863
  O     12.34626893      2.16631666     -5.01136403
  O     18.92693223      2.16872457     -5.01182269
  O     12.35319463      5.15333855     -5.01211275
  O     18.92479343      5.15702773     -5.01288125
  O     12.38480073      8.10072512     -4.98445473
  O     18.93235633      8.05623231     -5.01259674
  O     12.35286853     14.03080392     -5.00936198
  O     18.92498483     14.03379252     -5.01470270
  O     12.37642473     11.06886562     -4.98555887
  O     18.93427013     11.04978872     -5.01564865
  O     12.37237753     16.98851532     -4.98794386
  O     18.92340113     17.02074082     -5.01352979
  O      3.22044698      2.16860736     -5.01483320
  O      3.22535877      5.15561492     -5.01428870
  O      3.22541749      8.14656077     -5.01556500
  O      3.21913862     14.03265332     -5.01720782
  O      3.22122825     11.05180552     -5.01514675
  O      3.19055941     16.98232112     -4.99293827
  O      9.80662525      2.17046481     -5.01076665
  O     16.39100653      2.17423529     -5.01482192
  O      9.80898175      5.15497252     -5.01507870
  O     16.39253663      5.14959923     -5.01645290
  O      9.91779221      8.13950322     -5.26757440
  O     16.39480123      8.14363750     -5.01513968
  O      9.93210408     14.03336686     -5.19536888
  O     16.50904620     14.03254601     -5.20296988
  O      9.94031990     11.07440600     -5.19705723
  O     16.52457610     11.06721736     -5.19701748
  O      9.89109481     16.97561302     -5.19278317
  O     16.48915131     16.99946280     -5.19553072
  O      1.25088733      0.71851802     -6.18411049
  O      1.24511498      3.66782190     -6.18930110
  O      1.25127594      6.62532430     -6.18717196
  O      1.25087407     12.55127117     -6.19242414
  O      1.24291261      9.58949157     -6.18831295
  O      1.24441005     15.50623474     -6.18118684
  O      7.75313584      0.71934483     -6.18526678
  O     14.41859379      0.72195880     -6.18694327
  O      7.83046563      3.64396538     -6.19141794
  O     14.34234357      3.65447390     -6.19246203
  O      7.75205245      6.62230557     -6.19408800
  O     14.42223371      6.61949175     -6.19834840
  O      7.75339785     12.55076102     -6.19457837
  O     14.33862573     12.56087697     -6.19719842
  O      7.82727799      9.60001139     -6.19093921
  O     14.41597948      9.59571130     -6.19876855
  O      7.75657171     15.49529594     -6.18846092
  O     14.33832771     15.52441085     -6.20041601
 Au     12.12841779      8.47959825      8.59447759
 Au     13.02708578      6.11108132      7.66085175
 Au     10.33882248      6.45849720      7.67105353
 Au      8.55316400     11.61808050      8.13620588
 Au      9.33606510      8.98624053      8.32173233
 Au      7.64841295      6.82968586      7.69347283
 Au     11.14096292     10.91219600      9.13740800
 Au      6.77293066      9.61671893      7.68138420
