23400
Energy = 398318.43670418 au
 C1      1.97000000      3.49000000     45.29000000
 C2      0.43000000      1.82000000     44.63000000
 C3      2.82000000      1.42000000     44.36000000
 N4      1.77000000      2.03000000     45.17000000
 C5      1.75000000      1.37000000     46.50000000
 C6      3.09000000      1.35000000     47.23000000
OS7      3.34000000      2.70000000     47.57000000
 P8      4.48000000      3.15000000     48.57000000
OM9      5.39000000      2.53000000     47.58000000
OM10      3.92000000      4.48000000     48.32000000
OS11      3.76000000      2.13000000     49.54000000
C12      2.67000000      2.66000000     50.28000000
C13      1.62000000      1.66000000     50.75000000
OS14      0.94000000      2.38000000     51.79000000
C15     99.63000000      2.22000000     51.65000000
O16     99.16000000      1.89000000     50.56000000
C17     98.89000000      2.95000000     52.73000000
C18     97.56000000      2.94000000     52.04000000
C19     96.55000000      3.73000000     52.81000000
C20     96.16000000      3.13000000     54.14000000
C21     94.75000000      3.67000000     54.34000000
C22     94.06000000      3.32000000     55.64000000
C23     92.57000000      3.68000000     55.57000000
C24     92.13000000      3.91000000     56.98000000
C25     91.39000000      4.73000000     57.75000000
C26     91.27000000      4.66000000     59.26000000
C27     91.49000000      5.97000000     60.10000000
C28     91.56000000      6.08000000     61.65000000
C29     90.39000000      5.90000000     62.64000000
C30     90.64000000      5.35000000     64.06000000
C31     90.01000000      3.97000000     64.41000000
C32     89.96000000      3.60000000     65.90000000
C33     88.94000000      2.72000000     66.62000000
C34      2.21000000      0.28000000     51.13000000
OS35      1.61000000     99.83000000     52.34000000
C36      2.04000000     98.98000000     53.29000000
O37      3.12000000     98.42000000     53.46000000
C38      1.02000000     99.20000000     54.36000000
C39      1.68000000     98.82000000     55.65000000
C40      0.52000000     98.85000000     56.59000000
C41      0.98000000     98.04000000     57.76000000
C42      0.42000000     98.76000000     58.93000000
C43      0.93000000     98.11000000     60.19000000
C44      0.13000000     98.90000000     61.19000000
C45      0.18000000     98.53000000     62.64000000
C46     99.22000000     99.59000000     63.15000000
C47     99.12000000     99.71000000     64.65000000
C48      0.04000000     98.84000000     65.50000000
C49     99.86000000     99.26000000     66.95000000
C50      0.58000000     98.27000000     67.84000000
C51      0.51000000     98.71000000     69.30000000
C52      1.34000000     97.74000000     70.13000000
 C1     10.04000000      1.72000000     45.03000000
 C2      8.51000000      3.40000000     44.16000000
 C3      7.78000000      1.08000000     44.47000000
 N4      8.65000000      2.17000000     44.93000000
 C5      8.20000000      2.57000000     46.27000000
 C6      8.20000000      1.45000000     47.27000000
OS7      9.45000000      1.03000000     47.79000000
 P8      9.33000000     99.55000000     48.33000000
OM9      9.13000000     99.08000000     46.92000000
OM10     10.57000000     99.20000000     49.00000000
OS11      7.96000000     99.68000000     49.17000000
C12      7.84000000      0.56000000     50.31000000
C13      7.04000000      1.92000000     50.30000000
OS14      7.80000000      3.23000000     50.19000000
C15      8.37000000      4.39000000     49.58000000
O16      8.26000000      4.61000000     48.36000000
C17      9.23000000      5.32000000     50.49000000
C18     10.21000000      6.48000000     50.08000000
C19     11.01000000      7.22000000     51.23000000
C20     11.44000000      8.66000000     51.66000000
C21     12.13000000      9.20000000     52.97000000
C22     11.46000000      9.41000000     54.36000000
C23     11.92000000     10.57000000     55.28000000
C24     11.94000000     10.60000000     56.80000000
C25     12.73000000     11.35000000     57.61000000
C26     12.94000000     11.50000000     59.10000000
C27     13.39000000     12.89000000     59.55000000
C28     13.53000000     13.06000000     61.07000000
C29     14.41000000     14.20000000     61.64000000
C30     14.52000000     14.55000000     63.16000000
C31     13.52000000     15.54000000     63.76000000
C32     13.43000000     16.25000000     65.13000000
C33     13.22000000     15.58000000     66.49000000
C34      6.07000000      1.56000000     51.48000000
OS35      4.99000000      2.33000000     52.09000000
C36      4.40000000      1.69000000     53.17000000
O37      4.82000000      0.59000000     53.45000000
C38      3.19000000      2.38000000     53.88000000
C39      2.54000000      2.22000000     55.29000000
C40      2.62000000      3.08000000     56.60000000
C41      3.62000000      3.56000000     57.74000000
C42      4.31000000      4.73000000     58.50000000
C43      5.15000000      4.38000000     59.77000000
C44      4.60000000      3.65000000     61.04000000
C45      4.93000000      2.83000000     62.35000000
C46      5.28000000      2.06000000     63.67000000
C47      6.50000000      1.60000000     64.52000000
C48      6.35000000      1.01000000     65.95000000
C49      6.47000000      1.80000000     67.27000000
C50      5.25000000      2.66000000     67.58000000
C51      4.96000000      3.06000000     69.02000000
C52      4.38000000      1.90000000     69.83000000
 C1     14.82000000      3.36000000     45.30000000
 C2     13.56000000      1.49000000     44.56000000
 C3     15.96000000      1.51000000     44.22000000
 N4     14.85000000      1.90000000     45.09000000
 C5     14.97000000      1.17000000     46.38000000
 C6     16.32000000      1.31000000     47.09000000
OS7     16.37000000      2.67000000     47.49000000
 P8     17.30000000      3.11000000     48.68000000
OM9     18.34000000      2.81000000     47.65000000
OM10     16.61000000      4.40000000     48.59000000
OS11     16.57000000      1.94000000     49.54000000
C12     15.24000000      2.09000000     50.10000000
C13     14.56000000      0.86000000     50.77000000
OS14     13.33000000      1.22000000     51.46000000
C15     12.20000000      1.23000000     50.72000000
O16     12.22000000      1.64000000     49.55000000
C17     10.98000000      1.02000000     51.62000000
C18     10.15000000      2.28000000     51.89000000
C19      9.07000000      2.20000000     53.00000000
C20      8.41000000      3.56000000     53.24000000
C21      7.10000000      3.55000000     54.01000000
C22      7.09000000      2.38000000     54.98000000
C23      5.93000000      2.41000000     55.97000000
C24      5.34000000      1.10000000     56.51000000
C25      4.49000000      0.43000000     57.34000000
C26      3.40000000      0.44000000     58.40000000
C27      3.48000000      0.86000000     59.87000000
C28      2.12000000      1.36000000     60.38000000
C29      1.80000000      1.84000000     61.82000000
C30      2.35000000      0.98000000     62.96000000
C31      1.92000000      1.34000000     64.39000000
C32      2.89000000      1.28000000     65.58000000
C33      2.70000000      0.70000000     66.98000000
C34     15.56000000      0.14000000     51.69000000
OS35     15.16000000     99.06000000     52.56000000
C36     15.88000000     99.04000000     53.71000000
O37     16.82000000     99.77000000     53.92000000
C38     15.64000000     97.85000000     54.59000000
C39     16.01000000     98.22000000     56.01000000
C40     14.98000000     99.15000000     56.64000000
C41     15.69000000     99.67000000     57.88000000
C42     14.91000000      0.60000000     58.79000000
C43     13.97000000     99.90000000     59.71000000
C44     13.51000000      0.76000000     60.85000000
C45     14.61000000      1.12000000     61.80000000
C46     13.86000000      1.10000000     63.10000000
C47     14.57000000      1.22000000     64.43000000
C48     15.15000000      0.00000000     65.09000000
C49     15.00000000      0.15000000     66.59000000
C50     15.54000000     98.87000000     67.17000000
C51     15.46000000     98.88000000     68.68000000
C52     16.12000000     97.61000000     69.22000000
 C1     21.68000000      3.43000000     45.17000000
 C2     20.20000000      1.70000000     44.52000000
 C3     22.58000000      1.21000000     44.86000000
 N4     21.41000000      1.99000000     45.27000000
 C5     21.06000000      1.59000000     46.67000000
 C6     22.18000000      1.73000000     47.70000000
OS7     22.53000000      3.10000000     47.79000000
 P8     23.84000000      3.53000000     48.52000000
OM9     24.68000000      3.17000000     47.34000000
OM10     23.33000000      4.90000000     48.50000000
OS11     23.60000000      2.44000000     49.66000000
C12     23.01000000      2.60000000     50.94000000
C13     22.32000000      1.43000000     51.66000000
OS14     21.02000000      1.84000000     52.13000000
C15     19.96000000      1.71000000     51.29000000
O16     19.97000000      1.86000000     50.06000000
C17     18.71000000      1.74000000     52.10000000
C18     18.12000000      3.10000000     51.99000000
C19     16.82000000      3.03000000     52.73000000
C20     16.94000000      2.59000000     54.15000000
C21     15.58000000      2.87000000     54.66000000
C22     15.31000000      2.54000000     56.08000000
C23     14.71000000      3.79000000     56.67000000
C24     14.06000000      3.64000000     57.97000000
C25     12.81000000      3.83000000     58.34000000
C26     12.57000000      3.64000000     59.78000000
C27     11.21000000      3.36000000     60.30000000
C28     11.15000000      4.27000000     61.51000000
C29     11.63000000      3.60000000     62.77000000
C30     10.84000000      2.39000000     63.24000000
C31     10.30000000      2.66000000     64.63000000
C32      9.98000000      1.39000000     65.39000000
C33      9.86000000      1.59000000     66.89000000
C34     23.28000000      0.87000000     52.74000000
OS35     22.79000000     99.89000000     53.69000000
C36     23.64000000     99.08000000     54.39000000
O37     24.81000000     98.96000000     54.04000000
C38     23.04000000     98.50000000     55.71000000
C39     22.23000000     97.20000000     55.98000000
C40     20.83000000     97.13000000     56.64000000
C41     20.60000000     97.33000000     58.14000000
C42     19.16000000     97.80000000     58.40000000
C43     18.82000000     97.84000000     59.88000000
C44     19.42000000     99.01000000     60.65000000
C45     19.41000000     98.65000000     62.13000000
C46     18.17000000     99.12000000     62.87000000
C47     18.42000000     99.42000000     64.34000000
C48     18.93000000     98.28000000     65.21000000
C49     19.18000000     98.87000000     66.60000000
C50     20.08000000     98.01000000     67.49000000
C51     19.85000000     98.46000000     68.94000000
C52     20.97000000     98.00000000     69.87000000
 C1     27.99000000      0.38000000     45.13000000
 C2     29.33000000      2.26000000     44.50000000
 C3     26.96000000      2.55000000     44.99000000
 N4     28.20000000      1.83000000     45.31000000
 C5     28.58000000      2.11000000     46.72000000
 C6     27.51000000      1.80000000     47.76000000
OS7     27.19000000      0.41000000     47.84000000
 P8     25.78000000      0.09000000     48.46000000
OM9     25.01000000      0.26000000     47.19000000
OM10     25.88000000     98.82000000     49.13000000
OS11     25.75000000      1.23000000     49.52000000
C12     26.18000000      0.86000000     50.81000000
C13     27.26000000      1.83000000     51.26000000
OS14     28.28000000      0.92000000     51.76000000
C15     29.19000000      0.17000000     51.04000000
O16     29.56000000      0.46000000     49.90000000
C17     29.91000000     99.26000000     52.04000000
C18     31.42000000     99.15000000     51.87000000
C19     32.13000000     98.95000000     53.22000000
C20     32.50000000      0.22000000     54.02000000
C21     33.87000000      0.28000000     54.76000000
C22     34.83000000      0.89000000     55.84000000
C23     36.13000000      0.21000000     56.27000000
C24     36.52000000      0.25000000     57.71000000
C25     37.36000000     99.44000000     58.38000000
C26     37.68000000     99.65000000     59.83000000
C27     37.76000000     98.54000000     60.90000000
C28     39.13000000     98.05000000     61.44000000
C29     39.49000000     98.07000000     62.94000000
C30     40.92000000     98.40000000     63.49000000
C31     41.82000000     99.65000000     63.73000000
C32     41.77000000      0.61000000     64.95000000
C33     41.78000000      2.13000000     64.68000000
C34     26.58000000      3.07000000     51.96000000
OS35     27.18000000      4.29000000     52.54000000
C36     26.54000000      4.86000000     53.64000000
O37     25.44000000      4.39000000     53.91000000
C38     27.20000000      6.04000000     54.43000000
C39     27.08000000      6.35000000     55.98000000
C40     28.01000000      7.39000000     56.77000000
C41     28.14000000      7.63000000     58.32000000
C42     29.43000000      7.21000000     59.11000000
C43     29.52000000      6.86000000     60.63000000
C44     30.12000000      5.50000000     61.11000000
C45     30.05000000      5.07000000     62.60000000
C46     31.16000000      4.06000000     62.95000000
C47     31.04000000      3.43000000     64.34000000
C48     30.29000000      4.41000000     65.21000000
C49     30.65000000      4.44000000     66.69000000
C50     30.01000000      5.76000000     67.06000000
C51     30.23000000      6.46000000     68.39000000
C52     29.30000000      7.66000000     68.54000000
 C1     34.32000000      3.42000000     45.10000000
 C2     33.06000000      1.49000000     44.51000000
 C3     35.42000000      1.61000000     43.91000000
 N4     34.39000000      1.96000000     44.89000000
 C5     34.67000000      1.23000000     46.15000000
 C6     36.07000000      1.44000000     46.72000000
OS7     36.06000000      2.78000000     47.15000000
 P8     36.98000000      3.21000000     48.36000000
OM9     38.00000000      3.11000000     47.28000000
OM10     36.09000000      4.38000000     48.41000000
OS11     36.49000000      1.86000000     49.14000000
C12     35.34000000      1.97000000     49.98000000
C13     34.56000000      0.87000000     50.75000000
OS14     33.43000000      1.65000000     51.28000000
C15     32.50000000      2.35000000     50.53000000
O16     32.43000000      2.31000000     49.29000000
C17     31.84000000      3.40000000     51.43000000
C18     30.36000000      3.21000000     51.78000000
C19     29.86000000      3.20000000     53.25000000
C20     29.45000000      1.99000000     54.14000000
C21     28.25000000      2.22000000     55.09000000
C22     27.08000000      1.23000000     55.08000000
C23     25.80000000      1.80000000     55.71000000
C24     25.65000000      1.79000000     57.20000000
C25     24.85000000      2.64000000     57.88000000
C26     24.54000000      2.74000000     59.35000000
C27     23.86000000      3.92000000     60.03000000
C28     23.30000000      3.69000000     61.44000000
C29     22.16000000      2.66000000     61.54000000
C30     21.58000000      2.25000000     62.91000000
C31     21.77000000      0.74000000     63.11000000
C32     21.73000000      0.05000000     64.49000000
C33     22.93000000     99.43000000     65.22000000
C34     35.45000000      0.09000000     51.79000000
OS35     35.08000000     98.78000000     52.39000000
C36     35.61000000     98.05000000     53.48000000
O37     36.72000000     98.17000000     53.96000000
C38     34.69000000     97.09000000     54.22000000
C39     34.88000000     97.28000000     55.75000000
C40     33.65000000     97.69000000     56.61000000
C41     33.95000000     98.18000000     58.04000000
C42     32.70000000     98.71000000     58.72000000
C43     32.77000000     99.17000000     60.18000000
C44     33.48000000      0.49000000     60.54000000
C45     33.04000000      0.97000000     61.93000000
C46     34.16000000      1.08000000     62.98000000
C47     33.61000000      1.10000000     64.42000000
C48     34.65000000      0.75000000     65.50000000
C49     33.94000000      0.41000000     66.82000000
C50     34.62000000     99.28000000     67.60000000
C51     33.61000000     98.72000000     68.61000000
C52     34.26000000     98.24000000     69.90000000
 C1     40.91000000      3.49000000     45.38000000
 C2     39.67000000      1.74000000     44.40000000
 C3     42.12000000      1.66000000     44.35000000
 N4     40.91000000      2.04000000     45.10000000
 C5     40.83000000      1.25000000     46.36000000
 C6     42.10000000      1.18000000     47.20000000
OS7     42.34000000      2.53000000     47.52000000
 P8     43.53000000      3.00000000     48.44000000
OM9     44.32000000      2.53000000     47.26000000
OM10     42.82000000      4.30000000     48.36000000
OS11     42.93000000      1.94000000     49.48000000
C12     41.84000000      2.43000000     50.25000000
C13     41.18000000      1.61000000     51.37000000
OS14     40.07000000      2.34000000     51.98000000
C15     39.01000000      2.74000000     51.24000000
O16     38.94000000      2.39000000     50.06000000
C17     37.80000000      3.11000000     52.11000000
C18     36.96000000      4.37000000     51.94000000
C19     35.50000000      4.15000000     52.38000000
C20     35.10000000      3.56000000     53.74000000
C21     33.73000000      4.12000000     54.18000000
C22     32.68000000      3.31000000     54.97000000
C23     32.55000000      2.90000000     56.46000000
C24     31.53000000      1.85000000     56.89000000
C25     31.02000000      1.59000000     58.11000000
C26     29.93000000      0.59000000     58.46000000
C27     28.96000000      0.96000000     59.59000000
C28     29.65000000      1.24000000     60.93000000
C29     28.68000000      1.60000000     62.05000000
C30     28.78000000      0.64000000     63.24000000
C31     28.19000000      1.33000000     64.47000000
C32     27.87000000      0.37000000     65.61000000
C33     28.97000000      0.44000000     66.66000000
C34     42.25000000      1.16000000     52.38000000
OS35     42.08000000     99.79000000     52.82000000
C36     42.13000000     99.55000000     54.17000000
O37     42.38000000      0.43000000     54.99000000
C38     41.79000000     98.10000000     54.49000000
C39     42.09000000     97.68000000     55.93000000
C40     41.05000000     98.17000000     56.94000000
C41     41.51000000     99.38000000     57.75000000
C42     41.17000000     99.22000000     59.22000000
C43     41.67000000      0.26000000     60.25000000
C44     40.85000000      1.42000000     60.89000000
C45     39.71000000      1.25000000     61.95000000
C46     38.56000000      1.07000000     63.03000000
C47     38.42000000      1.06000000     64.60000000
C48     38.53000000     99.94000000     65.65000000
C49     38.85000000      0.41000000     67.09000000
C50     39.91000000     99.49000000     67.71000000
C51     39.94000000     99.39000000     69.24000000
C52     40.93000000     98.31000000     69.69000000
 C1     47.77000000      3.39000000     45.22000000
 C2     46.02000000      2.07000000     44.40000000
 C3     48.32000000      1.21000000     44.25000000
 N4     47.34000000      1.99000000     45.02000000
 C5     47.09000000      1.31000000     46.32000000
 C6     48.31000000      0.96000000     47.17000000
OS7     48.91000000      2.21000000     47.42000000
 P8     50.09000000      2.39000000     48.43000000
OM9     50.89000000      1.63000000     47.44000000
OM10     49.92000000      3.83000000     48.21000000
OS11     49.34000000      1.49000000     49.51000000
C12     48.32000000      2.14000000     50.26000000
C13     47.62000000      1.35000000     51.39000000
OS14     46.79000000      2.29000000     52.18000000
C15     45.69000000      2.89000000     51.62000000
O16     45.35000000      2.54000000     50.50000000
C17     44.85000000      3.88000000     52.46000000
C18     43.78000000      4.56000000     51.55000000
C19     42.54000000      5.50000000     51.69000000
C20     41.27000000      4.98000000     52.44000000
C21     40.05000000      5.81000000     52.95000000
C22     39.60000000      5.64000000     54.44000000
C23     39.57000000      6.94000000     55.30000000
C24     39.00000000      6.84000000     56.68000000
C25     38.44000000      7.76000000     57.49000000
C26     37.94000000      7.35000000     58.84000000
C27     36.80000000      7.98000000     59.64000000
C28     37.37000000      8.62000000     60.91000000
C29     36.52000000      8.36000000     62.16000000
C30     36.28000000      6.87000000     62.19000000
C31     35.65000000      6.26000000     63.43000000
C32     35.14000000      4.84000000     63.14000000
C33     34.74000000      4.12000000     64.40000000
C34     48.72000000      0.54000000     52.18000000
OS35     48.35000000     99.31000000     52.87000000
C36     49.06000000     98.81000000     53.94000000
O37     50.24000000     99.04000000     54.14000000
C38     48.29000000     97.69000000     54.65000000
C39     47.96000000     98.00000000     56.11000000
C40     46.49000000     97.89000000     56.58000000
C41     46.36000000     98.35000000     58.03000000
C42     44.97000000     98.60000000     58.60000000
C43     45.01000000     98.70000000     60.13000000
C44     45.26000000      0.08000000     60.73000000
C45     45.05000000      0.05000000     62.24000000
C46     45.43000000      1.38000000     62.87000000
C47     45.04000000      1.54000000     64.34000000
C48     45.31000000      0.31000000     65.21000000
C49     44.96000000      0.51000000     66.69000000
C50     45.33000000     99.27000000     67.49000000
C51     44.68000000     99.25000000     68.87000000
C52     45.10000000     98.01000000     69.66000000
 C1     54.34000000      3.29000000     45.40000000
 C2     52.29000000      2.22000000     45.03000000
 C3     54.27000000      1.09000000     44.27000000
 N4     53.70000000      1.97000000     45.30000000
 C5     53.78000000      1.25000000     46.60000000
 C6     55.17000000      0.90000000     47.16000000
OS7     55.78000000      2.12000000     47.57000000
 P8     56.85000000      2.10000000     48.77000000
OM9     57.70000000      1.34000000     47.82000000
OM10     56.69000000      3.56000000     48.67000000
OS11     55.78000000      1.27000000     49.61000000
C12     54.87000000      1.98000000     50.45000000
C13     53.68000000      1.11000000     50.94000000
OS14     53.00000000      1.79000000     52.02000000
C15     52.03000000      2.64000000     51.64000000
O16     51.86000000      2.92000000     50.46000000
C17     51.20000000      3.10000000     52.81000000
C18     50.06000000      3.93000000     52.28000000
C19     48.91000000      4.05000000     53.27000000
C20     49.41000000      4.37000000     54.65000000
C21     48.74000000      5.64000000     55.10000000
C22     47.32000000      5.35000000     55.49000000
C23     47.40000000      5.90000000     56.89000000
C24     46.05000000      5.96000000     57.47000000
C25     45.71000000      6.45000000     58.64000000
C26     44.30000000      6.44000000     59.03000000
C27     44.00000000      7.57000000     59.96000000
C28     44.98000000      7.31000000     61.06000000
C29     44.39000000      7.87000000     62.32000000
C30     44.17000000      6.60000000     63.08000000
C31     44.02000000      6.95000000     64.53000000
C32     44.01000000      5.60000000     65.22000000
C33     44.32000000      5.82000000     66.69000000
C34     54.14000000     99.67000000     51.29000000
OS35     53.37000000     98.89000000     52.24000000
C36     54.04000000     98.18000000     53.21000000
O37     55.26000000     98.02000000     53.23000000
C38     53.10000000     97.57000000     54.26000000
C39     53.66000000     97.61000000     55.69000000
C40     52.56000000     97.58000000     56.75000000
C41     53.12000000     97.93000000     58.14000000
C42     52.01000000     97.92000000     59.19000000
C43     52.48000000     98.11000000     60.64000000
C44     52.99000000     99.52000000     60.97000000
C45     52.83000000     99.76000000     62.47000000
C46     53.10000000      1.21000000     62.90000000
C47     52.59000000      1.41000000     64.33000000
C48     53.11000000      0.28000000     65.22000000
C49     52.58000000      0.41000000     66.65000000
C50     52.88000000     99.16000000     67.47000000
C51     52.20000000     99.25000000     68.84000000
C52     52.60000000     98.09000000     69.74000000
 C1     61.18000000      2.77000000     45.65000000
 C2     60.53000000      0.40000000     45.09000000
 C3     62.70000000      1.01000000     45.72000000
 N4     61.30000000      1.33000000     45.91000000
 C5     60.82000000      1.05000000     47.29000000
 C6     61.53000000      1.77000000     48.43000000
OS7     61.38000000      3.19000000     48.43000000
 P8     62.67000000      3.96000000     48.91000000
OM9     63.51000000      3.54000000     47.76000000
OM10     62.14000000      5.31000000     49.01000000
OS11     62.88000000      3.21000000     50.29000000
C12     61.85000000      3.47000000     51.24000000
C13     61.20000000      2.19000000     51.76000000
OS14     59.92000000      2.29000000     52.42000000
C15     59.09000000      1.28000000     52.04000000
O16     58.84000000      1.08000000     50.84000000
C17     58.27000000      0.78000000     53.20000000
C18     57.14000000      1.76000000     53.37000000
C19     55.84000000      1.06000000     53.76000000
C20     55.21000000      0.95000000     55.14000000
C21     53.74000000      1.36000000     54.95000000
C22     52.81000000      1.13000000     56.12000000
C23     51.51000000      1.93000000     56.02000000
C24     50.49000000      1.14000000     56.74000000
C25     50.26000000      1.10000000     58.05000000
C26     49.30000000      0.08000000     58.56000000
C27     48.70000000      0.33000000     59.92000000
C28     49.83000000      0.80000000     60.80000000
C29     49.38000000      1.07000000     62.22000000
C30     48.90000000     99.91000000     63.06000000
C31     49.02000000      0.46000000     64.47000000
C32     48.51000000     99.47000000     65.48000000
C33     49.19000000     99.57000000     66.84000000
C34     62.29000000      1.53000000     52.59000000
OS35     61.91000000      0.22000000     53.00000000
C36     62.69000000     99.73000000     53.98000000
O37     63.90000000     99.92000000     54.00000000
C38     61.93000000     98.59000000     54.61000000
C39     61.93000000     98.75000000     56.13000000
C40     60.75000000     97.99000000     56.72000000
C41     60.80000000     98.11000000     58.24000000
C42     59.51000000     97.57000000     58.85000000
C43     59.59000000     97.61000000     60.37000000
C44     59.60000000     99.04000000     60.92000000
C45     59.60000000     98.98000000     62.44000000
C46     59.33000000      0.34000000     63.08000000
C47     59.20000000      0.19000000     64.60000000
C48     60.56000000     99.95000000     65.26000000
C49     60.46000000     99.72000000     66.77000000
C50     60.02000000     98.29000000     67.10000000
C51     59.93000000     98.02000000     68.60000000
C52     61.29000000     98.10000000     69.30000000
 C1     67.56000000      0.08000000     45.99000000
 C2     68.72000000      1.91000000     45.07000000
 C3     66.29000000      1.96000000     45.22000000
 N4     67.55000000      1.54000000     45.84000000
 C5     67.65000000      2.26000000     47.15000000
 C6     66.49000000      2.10000000     48.14000000
OS7     66.41000000      0.71000000     48.43000000
 P8     65.09000000      0.17000000     49.06000000
OM9     64.30000000      0.50000000     47.87000000
OM10     65.51000000     98.78000000     49.18000000
OS11     65.08000000      1.13000000     50.28000000
C12     65.91000000      0.58000000     51.29000000
C13     66.85000000      1.59000000     51.94000000
OS14     68.05000000      0.95000000     52.40000000
C15     68.98000000      0.56000000     51.49000000
O16     69.10000000      0.96000000     50.33000000
C17     69.92000000     99.63000000     52.21000000
C18     71.23000000      0.36000000     52.49000000
C19     71.22000000      1.29000000     53.73000000
C20     72.10000000      1.76000000     54.94000000
C21     73.64000000      1.72000000     54.90000000
C22     74.61000000      1.33000000     56.06000000
C23     76.08000000      1.21000000     55.57000000
C24     77.01000000      1.22000000     56.74000000
C25     78.18000000      0.74000000     57.16000000
C26     78.50000000      1.15000000     58.55000000
C27     79.50000000      0.43000000     59.43000000
C28     79.51000000      1.13000000     60.79000000
C29     79.94000000      0.18000000     61.90000000
C30     79.91000000      0.89000000     63.24000000
C31     80.26000000     99.98000000     64.41000000
C32     80.47000000      0.90000000     65.61000000
C33     79.52000000      0.63000000     66.77000000
C34     65.96000000      2.36000000     52.94000000
OS35     66.40000000      2.56000000     54.29000000
C36     65.37000000      3.03000000     55.03000000
O37     64.41000000      3.53000000     54.44000000
C38     65.59000000      3.03000000     56.55000000
C39     66.94000000      2.69000000     57.22000000
C40     67.98000000      3.77000000     57.60000000
C41     67.70000000      4.67000000     58.81000000
C42     68.69000000      5.84000000     58.98000000
C43     68.57000000      6.20000000     60.46000000
C44     68.56000000      4.82000000     61.12000000