23400
Energy = 340298.32609015 au
 C1      1.30000000      3.20000000     44.95000000
 C2      0.74000000      1.10000000     44.01000000
 C3      3.10000000      1.73000000     44.35000000
 N4      1.71000000      1.79000000     44.84000000
 C5      1.67000000      1.05000000     46.13000000
 C6      2.52000000      1.65000000     47.24000000
OS7      1.86000000      2.84000000     47.65000000
 P8      2.75000000      3.95000000     48.29000000
OM9      3.49000000      4.13000000     47.02000000
OM10      1.76000000      4.98000000     48.56000000
OS11      3.26000000      2.98000000     49.47000000
C12      2.17000000      2.48000000     50.29000000
C13      2.13000000      1.23000000     51.18000000
OS14      0.84000000      1.18000000     51.83000000
C15     99.82000000      0.59000000     51.16000000
O16     99.76000000      0.55000000     49.93000000
C17     98.64000000      0.47000000     52.10000000
C18     97.75000000      1.68000000     51.92000000
C19     96.54000000      1.46000000     52.81000000
C20     96.94000000      1.13000000     54.24000000
C21     95.73000000      1.06000000     55.17000000
C22     95.68000000      1.77000000     56.52000000
C23     94.43000000      1.20000000     57.21000000
C24     93.71000000      1.76000000     58.41000000
C25     92.35000000      1.78000000     58.53000000
C26     91.37000000      2.24000000     59.60000000
C27     89.99000000      1.93000000     60.22000000
C28     89.89000000      2.42000000     61.67000000
C29     89.54000000      1.44000000     62.81000000
C30     90.15000000      0.02000000     62.87000000
C31     90.80000000     99.46000000     64.16000000
C32     91.98000000     98.45000000     64.04000000
C33     92.30000000     97.69000000     65.32000000
C34      3.24000000      1.31000000     52.23000000
OS35      3.10000000      0.31000000     53.25000000
C36      3.93000000     99.25000000     53.21000000
O37      4.93000000     99.21000000     52.49000000
C38      3.58000000     98.24000000     54.29000000
C39      3.36000000     98.74000000     55.73000000
C40      2.01000000     99.41000000     56.07000000
C41      1.82000000     99.42000000     57.59000000
C42      0.54000000     98.69000000     58.01000000
C43      0.62000000     97.81000000     59.26000000
C44      0.84000000     98.52000000     60.60000000
C45      0.37000000     97.59000000     61.73000000
C46      0.46000000     98.17000000     63.15000000
C47     99.65000000     97.34000000     64.16000000
C48      0.39000000     96.73000000     65.37000000
C49      0.35000000     97.52000000     66.69000000
C50      1.21000000     96.91000000     67.81000000
C51      1.38000000     97.86000000     69.00000000
C52      2.62000000     97.51000000     69.83000000
 C1      7.44000000      1.04000000     45.37000000
 C2      9.60000000      0.99000000     44.43000000
 C3      8.40000000      3.11000000     44.63000000
 N4      8.70000000      1.80000000     45.23000000
 C5      9.37000000      2.00000000     46.55000000
 C6      8.73000000      2.94000000     47.59000000
OS7      7.47000000      2.39000000     47.80000000
 P8      6.23000000      3.24000000     48.19000000
OM9      6.51000000      4.24000000     47.13000000
OM10      5.52000000      2.00000000     47.84000000
OS11      6.84000000      3.45000000     49.61000000
C12      6.63000000      2.35000000     50.50000000
C13      7.98000000      1.88000000     51.04000000
OS14      7.92000000      0.46000000     51.37000000
C15      8.45000000     99.45000000     50.60000000
O16      8.97000000     99.63000000     49.48000000
C17      8.49000000     98.15000000     51.42000000
C18      9.86000000     97.63000000     51.92000000
C19      9.79000000     97.35000000     53.45000000
C20     11.07000000     97.10000000     54.27000000
C21     10.79000000     96.72000000     55.73000000
C22     12.05000000     96.21000000     56.47000000
C23     11.71000000     95.27000000     57.65000000
C24     12.46000000     94.01000000     58.12000000
C25     13.14000000     92.89000000     58.55000000
C26     14.26000000     92.53000000     59.52000000
C27     14.58000000     91.10000000     59.96000000
C28     13.53000000     90.58000000     60.92000000
C29     13.88000000     89.66000000     62.09000000
C30     14.80000000     90.40000000     63.06000000
C31     14.41000000     90.17000000     64.51000000
C32     15.50000000     90.78000000     65.37000000
C33     15.13000000     90.89000000     66.85000000
C34      8.55000000      3.05000000     51.92000000
OS35      9.06000000      3.17000000     53.32000000
C36     10.10000000      3.76000000     54.08000000
O37     10.87000000      4.60000000     53.71000000
C38     10.09000000      3.48000000     55.57000000
C39     11.04000000      4.20000000     56.53000000
C40     10.77000000      3.55000000     57.89000000
C41     11.67000000      3.75000000     59.10000000
C42     12.66000000      2.61000000     59.29000000
C43     13.56000000      2.73000000     60.51000000
C44     12.68000000      2.79000000     61.75000000
C45     13.37000000      2.63000000     63.09000000
C46     12.23000000      2.34000000     64.05000000
C47     12.40000000      2.06000000     65.54000000
C48     11.04000000      2.29000000     66.22000000
C49     11.16000000      1.86000000     67.66000000
C50     12.50000000      2.46000000     68.01000000
C51     12.82000000      2.25000000     69.47000000
C52     13.11000000      3.65000000     69.99000000
 C1     14.71000000      3.43000000     45.13000000
 C2     13.44000000      1.52000000     44.53000000
 C3     15.80000000      1.61000000     43.96000000
 N4     14.76000000      1.97000000     44.93000000
 C5     15.02000000      1.26000000     46.20000000
 C6     16.43000000      1.44000000     46.75000000
OS7     16.50000000      2.80000000     47.15000000
 P8     17.51000000      3.25000000     48.30000000
OM9     18.45000000      2.99000000     47.16000000
OM10     16.66000000      4.46000000     48.34000000
OS11     16.97000000      2.00000000     49.09000000
C12     15.86000000      2.21000000     49.94000000
C13     15.51000000      0.96000000     50.76000000
OS14     14.17000000      1.25000000     51.31000000
C15     13.06000000      1.52000000     50.52000000
O16     13.04000000      1.41000000     49.28000000
C17     11.83000000      1.91000000     51.34000000
C18     11.23000000      0.69000000     52.08000000
C19     10.21000000      0.55000000     53.27000000
C20      9.11000000      0.47000000     54.41000000
C21      7.56000000      0.25000000     54.47000000
C22      6.71000000      1.55000000     54.44000000
C23      5.23000000      1.82000000     54.87000000
C24      4.78000000      1.58000000     56.29000000
C25      4.08000000      2.27000000     57.21000000
C26      3.84000000      1.95000000     58.67000000
C27      4.63000000      2.97000000     59.49000000
C28      4.84000000      2.78000000     60.99000000
C29      3.77000000      1.96000000     61.69000000
C30      2.75000000      1.07000000     62.39000000
C31      3.17000000      0.95000000     63.85000000
C32      2.25000000      1.67000000     64.84000000
C33      2.38000000      1.65000000     66.37000000
C34     16.82000000      0.43000000     51.53000000
OS35     17.11000000     99.28000000     52.44000000
C36     18.08000000     99.17000000     53.46000000
O37     19.11000000     99.83000000     53.48000000
C38     17.87000000     98.05000000     54.52000000
C39     17.81000000     98.28000000     56.07000000
C40     16.42000000     98.39000000     56.76000000
C41     15.89000000     98.84000000     58.13000000
C42     14.36000000     98.85000000     58.25000000
C43     13.92000000     99.44000000     59.59000000
C44     14.80000000     99.05000000     60.77000000
C45     14.13000000     99.40000000     62.09000000
C46     14.71000000     98.61000000     63.25000000
C47     14.07000000     99.14000000     64.52000000
C48     13.89000000     98.06000000     65.56000000
C49     13.64000000     98.71000000     66.91000000
C50     14.71000000     98.18000000     67.84000000
C51     14.20000000     98.13000000     69.27000000
C52     15.31000000     97.56000000     70.15000000
 C1     20.99000000      3.41000000     45.51000000
 C2     20.00000000      1.38000000     44.84000000
 C3     22.32000000      1.79000000     44.22000000
 N4     21.27000000      1.98000000     45.23000000
 C5     21.64000000      1.30000000     46.49000000
 C6     23.06000000      1.60000000     47.00000000
OS7     23.12000000      2.98000000     47.32000000
 P8     23.84000000      3.37000000     48.69000000
OM9     25.03000000      3.17000000     47.81000000
OM10     23.11000000      4.62000000     48.67000000
OS11     23.07000000      2.17000000     49.42000000
C12     21.96000000      2.49000000     50.24000000
C13     21.35000000      1.37000000     51.14000000
OS14     20.59000000      2.05000000     52.17000000
C15     19.43000000      2.54000000     51.72000000
O16     19.07000000      2.29000000     50.57000000
C17     18.52000000      3.14000000     52.77000000
C18     17.32000000      3.88000000     52.16000000
C19     16.07000000      3.99000000     53.05000000
C20     14.81000000      4.10000000     53.94000000
C21     13.45000000      3.39000000     53.89000000
C22     12.87000000      2.19000000     54.73000000
C23     12.33000000      1.02000000     55.64000000
C24     11.73000000      0.40000000     56.89000000
C25     10.58000000      0.12000000     57.53000000
C26     10.44000000     99.40000000     58.86000000
C27     10.52000000      0.16000000     60.21000000
C28      9.65000000      1.40000000     60.46000000
C29      9.45000000      1.64000000     61.93000000
C30      9.92000000      0.31000000     62.49000000
C31      9.65000000      0.28000000     63.97000000
C32     10.53000000     99.22000000     64.58000000
C33     10.33000000     98.94000000     66.07000000
C34     22.43000000      0.38000000     51.66000000
OS35     22.16000000     99.35000000     52.63000000
C36     23.04000000     99.09000000     53.66000000
O37     24.17000000     99.53000000     53.81000000
C38     22.49000000     97.98000000     54.52000000
C39     22.90000000     98.11000000     55.98000000
C40     21.59000000     98.00000000     56.74000000
C41     21.74000000     97.96000000     58.25000000
C42     20.33000000     97.76000000     58.82000000
C43     20.32000000     97.71000000     60.34000000
C44     20.80000000     99.04000000     60.92000000
C45     20.48000000     99.15000000     62.41000000
C46     20.94000000      0.51000000     62.92000000
C47     20.74000000      0.63000000     64.43000000
C48     21.56000000     99.57000000     65.16000000
C49     21.19000000     99.48000000     66.64000000
C50     21.22000000     98.01000000     67.06000000
C51     20.76000000     97.79000000     68.50000000
C52     21.87000000     98.12000000     69.49000000
 C1     27.51000000      3.26000000     45.25000000
 C2     26.53000000      1.33000000     44.33000000
 C3     28.94000000      1.66000000     44.09000000
 N4     27.75000000      1.83000000     44.94000000
 C5     27.91000000      0.99000000     46.16000000
 C6     29.23000000      1.13000000     46.92000000
OS7     29.21000000      2.49000000     47.25000000
 P8     30.14000000      3.05000000     48.35000000
OM9     31.21000000      2.85000000     47.33000000
OM10     29.36000000      4.31000000     48.24000000
OS11     29.61000000      1.89000000     49.36000000
C12     28.29000000      1.86000000     49.97000000
C13     27.94000000      0.87000000     51.13000000
OS14     27.02000000      1.50000000     52.06000000
C15     25.72000000      1.67000000     51.75000000
O16     25.34000000      1.61000000     50.58000000
C17     24.94000000      2.19000000     52.95000000
C18     23.95000000      3.31000000     52.67000000
C19     23.23000000      3.89000000     53.89000000
C20     22.80000000      2.73000000     54.75000000
C21     21.42000000      3.03000000     55.25000000
C22     20.92000000      1.78000000     55.93000000
C23     19.44000000      1.98000000     56.05000000
C24     18.92000000      1.17000000     57.15000000
C25     18.82000000      1.56000000     58.40000000
C26     18.20000000      0.69000000     59.40000000
C27     17.06000000      1.42000000     60.03000000
C28     17.66000000      1.81000000     61.33000000
C29     16.61000000      1.73000000     62.40000000
C30     17.28000000      0.99000000     63.52000000
C31     16.84000000      1.41000000     64.90000000
C32     17.39000000      0.28000000     65.76000000
C33     17.34000000      0.54000000     67.26000000
C34     29.18000000      0.48000000     51.96000000
OS35     28.95000000     99.39000000     52.87000000
C36     29.77000000     99.25000000     53.94000000
O37     30.83000000     99.86000000     54.09000000
C38     29.47000000     97.87000000     54.49000000
C39     29.36000000     97.73000000     56.01000000
C40     27.98000000     98.10000000     56.54000000
C41     27.97000000     97.91000000     58.06000000
C42     26.56000000     97.95000000     58.63000000
C43     26.57000000     97.83000000     60.15000000
C44     26.81000000     99.18000000     60.83000000
C45     26.71000000     99.04000000     62.35000000
C46     26.56000000      0.39000000     63.05000000
C47     26.42000000      0.21000000     64.56000000
C48     27.77000000     99.88000000     65.21000000
C49     27.63000000     99.59000000     66.71000000
C50     27.41000000     98.09000000     66.97000000
C51     27.04000000     97.80000000     68.43000000
C52     28.19000000     98.07000000     69.40000000
 C1     35.02000000      3.32000000     45.45000000
 C2     33.12000000      2.12000000     44.74000000
 C3     35.31000000      1.03000000     44.73000000
 N4     34.41000000      1.98000000     45.39000000
 C5     34.07000000      1.46000000     46.75000000
 C6     35.21000000      1.04000000     47.69000000
OS7     36.02000000      2.19000000     47.76000000
 P8     37.23000000      2.30000000     48.73000000
OM9     37.96000000      1.50000000     47.72000000
OM10     36.97000000      3.73000000     48.49000000
OS11     36.51000000      1.50000000     49.90000000
C12     35.88000000      2.28000000     50.93000000
C13     34.69000000      1.61000000     51.64000000
OS14     33.71000000      2.62000000     51.94000000
C15     32.64000000      2.77000000     51.12000000
O16     32.57000000      2.27000000     49.99000000
C17     31.99000000      4.09000000     51.49000000
C18     30.51000000      4.33000000     51.18000000
C19     29.53000000      3.74000000     52.21000000
C20     28.14000000      4.31000000     52.58000000
C21     27.77000000      3.79000000     53.99000000
C22     26.54000000      4.14000000     54.86000000
C23     26.62000000      4.92000000     56.17000000
C24     25.36000000      5.36000000     56.84000000
C25     25.37000000      5.94000000     58.04000000
C26     24.14000000      6.36000000     58.77000000
C27     24.47000000      7.29000000     59.94000000
C28     25.02000000      6.55000000     61.13000000
C29     24.04000000      5.44000000     61.47000000
C30     22.75000000      5.94000000     62.13000000
C31     22.96000000      6.11000000     63.63000000
C32     22.82000000      4.80000000     64.41000000
C33     22.81000000      5.11000000     65.91000000
C34     35.21000000      0.78000000     52.83000000
OS35     34.24000000     99.87000000     53.38000000
C36     34.74000000     98.70000000     53.85000000
O37     35.88000000     98.31000000     53.58000000
C38     33.65000000     97.78000000     54.38000000
C39     33.69000000     97.61000000     55.90000000
C40     32.98000000     98.78000000     56.59000000
C41     32.77000000     98.52000000     58.07000000
C42     31.55000000     99.31000000     58.54000000
C43     31.27000000     99.09000000     60.02000000
C44     32.13000000      0.02000000     60.86000000
C45     31.73000000     99.86000000     62.32000000
C46     32.02000000      1.14000000     63.09000000
C47     31.63000000      0.96000000     64.55000000
C48     32.51000000     99.85000000     65.13000000
C49     32.49000000     99.91000000     66.65000000
C50     31.91000000     98.62000000     67.22000000
C51     31.68000000     98.74000000     68.72000000
C52     32.96000000     98.54000000     69.53000000
 C1     42.30000000      2.64000000     45.05000000
 C2     39.96000000      2.99000000     44.75000000
 C3     40.96000000      0.81000000     44.23000000
 N4     40.98000000      2.00000000     45.09000000
 C5     40.61000000      1.58000000     46.46000000
 C6     41.45000000      0.45000000     47.06000000
OS7     42.70000000      1.07000000     47.32000000
 P8     43.75000000      0.56000000     48.38000000
OM9     44.02000000     99.49000000     47.37000000
OM10     44.27000000      1.91000000     48.09000000
OS11     42.56000000      0.26000000     49.40000000
C12     41.97000000      1.38000000     50.08000000
C13     40.52000000      1.18000000     50.58000000
OS14     39.69000000      2.38000000     50.85000000
C15     39.69000000      3.69000000     50.40000000
O16     40.08000000      3.95000000     49.26000000
C17     38.57000000      4.43000000     51.17000000
C18     38.50000000      5.92000000     51.59000000
C19     38.54000000      6.16000000     53.13000000
C20     38.51000000      7.33000000     54.15000000
C21     37.15000000      7.80000000     54.68000000
C22     36.97000000      8.85000000     55.81000000
C23     37.37000000     10.36000000     55.80000000
C24     36.58000000     11.08000000     56.86000000
C25     36.76000000     12.00000000     57.81000000
C26     35.60000000     12.33000000     58.69000000
C27     35.83000000     13.37000000     59.78000000
C28     36.70000000     12.69000000     60.82000000
C29     36.34000000     12.95000000     62.27000000
C30     34.85000000     13.02000000     62.61000000
C31     34.79000000     13.31000000     64.11000000
C32     33.41000000     13.65000000     64.65000000
C33     33.43000000     13.65000000     66.18000000
C34     40.71000000      0.15000000     51.72000000
OS35     39.65000000      0.19000000     52.67000000
C36     39.79000000     99.57000000     53.87000000
O37     40.69000000     98.77000000     54.15000000
C38     38.50000000     99.83000000     54.62000000
C39     38.65000000     99.83000000     56.14000000
C40     37.31000000      0.18000000     56.76000000
C41     37.51000000      0.19000000     58.27000000
C42     36.25000000      0.56000000     59.03000000
C43     36.56000000      0.38000000     60.51000000
C44     37.81000000      1.16000000     60.90000000
C45     37.98000000      1.01000000     62.40000000
C46     38.90000000      2.10000000     62.94000000
C47     38.67000000      2.31000000     64.43000000
C48     38.93000000      1.04000000     65.24000000
C49     38.77000000      1.40000000     66.72000000
C50     38.12000000      0.26000000     67.49000000
C51     37.21000000      0.82000000     68.59000000
C52     36.59000000     99.73000000     69.46000000
 C1     47.79000000      2.77000000     44.96000000
 C2     46.03000000      1.25000000     44.58000000
 C3     48.41000000      0.60000000     44.30000000
 N4     47.41000000      1.37000000     45.04000000
 C5     47.37000000      0.91000000     46.45000000
 C6     48.70000000      0.96000000     47.19000000
OS7     48.94000000      2.32000000     47.50000000
 P8     50.05000000      2.67000000     48.58000000
OM9     50.97000000      2.20000000     47.49000000
OM10     49.38000000      3.98000000     48.57000000
OS11     49.40000000      1.55000000     49.53000000
C12     48.31000000      1.93000000     50.36000000
C13     47.76000000      0.93000000     51.39000000
OS14     46.77000000      1.62000000     52.20000000
C15     45.52000000      1.73000000     51.66000000
O16     45.22000000      1.06000000     50.69000000
C17     44.51000000      2.33000000     52.61000000
C18     43.85000000      3.56000000     52.02000000
C19     42.37000000      3.54000000     52.40000000
C20     41.84000000      2.78000000     53.62000000
C21     40.37000000      3.22000000     53.81000000
C22     39.64000000      2.94000000     55.12000000
C23     38.43000000      3.84000000     55.36000000
C24     37.77000000      3.72000000     56.70000000
C25     37.15000000      4.60000000     57.49000000
C26     36.64000000      4.05000000     58.78000000
C27     35.74000000      4.90000000     59.65000000
C28     36.42000000      4.95000000     61.00000000
C29     35.50000000      4.97000000     62.19000000
C30     35.42000000      3.60000000     62.84000000
C31     35.43000000      3.89000000     64.34000000
C32     34.61000000      2.87000000     65.11000000
C33     35.43000000      1.73000000     65.66000000
C34     48.92000000      0.28000000     52.19000000
OS35     48.71000000     98.94000000     52.73000000
C36     49.06000000     98.77000000     54.05000000
O37     49.65000000     99.67000000     54.61000000
C38     48.78000000     97.41000000     54.70000000
C39     48.64000000     97.38000000     56.24000000
C40     47.18000000     97.56000000     56.71000000
C41     46.90000000     98.15000000     58.11000000
C42     45.50000000     98.79000000     58.22000000
C43     44.91000000     98.91000000     59.64000000
C44     45.53000000     99.98000000     60.53000000
C45     45.15000000     99.75000000     62.00000000
C46     45.66000000      0.91000000     62.86000000
C47     45.40000000      0.72000000     64.35000000
C48     46.32000000     99.73000000     65.06000000
C49     46.03000000     99.84000000     66.56000000
C50     47.07000000     99.17000000     67.46000000
C51     46.68000000     99.38000000     68.92000000
C52     47.56000000     98.59000000     69.88000000
 C1     55.43000000      1.80000000     44.63000000
 C2     53.18000000      1.36000000     43.93000000
 C3     54.73000000     99.55000000     44.53000000
 N4     54.27000000      0.91000000     44.79000000
 C5     53.70000000      0.91000000     46.16000000
 C6     54.70000000      0.72000000     47.28000000
OS7     55.29000000      1.98000000     47.46000000
 P8     56.44000000      2.13000000     48.52000000
OM9     57.34000000      1.65000000     47.41000000
OM10     56.11000000      3.52000000     48.73000000
OS11     55.83000000      1.11000000     49.58000000
C12     54.76000000      1.69000000     50.35000000
C13     54.15000000      0.93000000     51.55000000
OS14     53.29000000      1.85000000     52.32000000
C15     52.14000000      2.38000000     51.76000000
O16     51.81000000      2.00000000     50.64000000
C17     51.23000000      3.24000000     52.65000000
C18     50.65000000      4.53000000     52.01000000
C19     49.13000000      4.70000000     51.73000000
C20     48.17000000      4.38000000     52.89000000
C21     46.86000000      5.19000000     53.02000000
C22     46.19000000      4.84000000     54.36000000
C23     45.92000000      6.04000000     55.27000000
C24     45.40000000      5.66000000     56.61000000
C25     44.74000000      6.36000000     57.54000000
C26     44.37000000      5.73000000     58.83000000
C27     43.38000000      6.28000000     59.83000000
C28     43.57000000      5.18000000     60.84000000
C29     42.86000000      5.25000000     62.16000000
C30     42.86000000      3.83000000     62.68000000
C31     42.00000000      3.71000000     63.92000000
C32     42.22000000      2.34000000     64.53000000
C33     42.68000000      2.47000000     65.97000000
C34     55.34000000      0.23000000     52.29000000
OS35     55.21000000     98.93000000     52.93000000
C36     56.02000000     98.57000000     53.99000000
O37     57.19000000     98.90000000     54.09000000
C38     55.40000000     97.38000000     54.74000000
C39     55.20000000     97.38000000     56.27000000
C40     53.79000000     96.88000000     56.67000000
C41     53.45000000     97.19000000     58.13000000
C42     52.01000000     97.68000000     58.34000000
C43     51.71000000     97.69000000     59.84000000
C44     52.64000000     98.65000000     60.58000000
C45     52.49000000     98.42000000     62.07000000
C46     52.86000000     99.66000000     62.85000000
C47     52.27000000     99.56000000     64.24000000
C48     52.94000000     98.61000000     65.22000000
C49     52.34000000     98.99000000     66.57000000
C50     52.47000000     97.87000000     67.59000000
C51     51.93000000     98.37000000     68.93000000
C52     53.03000000     98.24000000     69.99000000
 C1     60.84000000      3.15000000     45.27000000
 C2     59.01000000      1.88000000     44.65000000
 C3     61.28000000      1.07000000     44.14000000
 N4     60.40000000      1.78000000     45.07000000
 C5     60.37000000      1.06000000     46.37000000
 C6     61.74000000      0.82000000     47.02000000
OS7     62.23000000      2.10000000     47.41000000
 P8     63.34000000      2.20000000     48.52000000
OM9     64.19000000      1.61000000     47.46000000
OM10     63.07000000      3.65000000     48.45000000
OS11     62.50000000      1.20000000     49.46000000
C12     61.31000000      1.66000000     50.11000000
C13     60.43000000      0.67000000     50.91000000
OS14     59.20000000      1.24000000     51.48000000
C15     58.58000000      2.41000000     51.15000000
O16     58.72000000      2.95000000     50.05000000
C17     57.47000000      2.71000000     52.14000000
C18     56.73000000      3.99000000     51.80000000
C19     55.33000000      4.26000000     52.40000000
C20     55.23000000      4.52000000     53.89000000
C21     53.92000000      5.25000000     54.14000000
C22     53.28000000      4.82000000     55.45000000
C23     53.48000000      5.87000000     56.53000000
C24     52.51000000      5.61000000     57.63000000
C25     51.77000000      6.43000000     58.37000000
C26     50.89000000      5.82000000     59.40000000
C27     50.33000000      6.81000000     60.38000000
C28     51.56000000      7.40000000     61.02000000
C29     51.27000000      7.63000000     62.48000000
C30     50.76000000      6.35000000     63.10000000
C31     51.08000000      6.51000000     64.58000000
C32     50.43000000      5.47000000     65.46000000
C33     50.79000000      5.70000000     66.92000000
C34     61.39000000      0.08000000     51.96000000
OS35     60.67000000     99.44000000     53.02000000
C36     61.30000000     98.88000000     54.07000000
O37     62.48000000     98.54000000     54.05000000
C38     60.17000000     98.07000000     54.66000000
C39     60.41000000     97.59000000     56.07000000
C40     59.39000000     98.34000000     56.89000000
C41     59.67000000     98.02000000     58.34000000
C42     58.37000000     98.12000000     59.11000000
C43     58.69000000     98.03000000     60.59000000
C44     59.65000000     99.16000000     60.97000000
C45     59.73000000     99.26000000     62.49000000
C46     60.68000000      0.35000000     62.99000000
C47     60.33000000      0.69000000     64.44000000
C48     59.95000000     99.42000000     65.22000000
C49     59.42000000     99.72000000     66.62000000
C50     58.70000000     98.47000000     67.15000000
C51     58.19000000     98.62000000     68.59000000
C52     59.32000000     98.41000000     69.60000000
 C1     67.41000000      3.38000000     45.32000000
 C2     66.00000000      1.49000000     44.86000000
 C3     68.43000000      1.20000000     45.00000000
 N4     67.25000000      1.93000000     45.49000000
 C5     67.08000000      1.57000000     46.92000000
 C6     68.14000000      1.99000000     47.95000000
OS7     68.23000000      3.41000000     48.04000000
 P8     69.42000000      3.89000000     48.96000000
OM9     70.45000000      3.62000000     47.92000000
OM10     69.00000000      5.28000000     49.09000000
OS11     69.19000000      2.92000000     50.21000000
C12     68.27000000      3.29000000     51.25000000
C13     67.48000000      2.13000000     51.90000000
OS14     66.27000000      2.62000000     52.53000000
C15     65.14000000      2.38000000     51.82000000
O16     65.19000000      1.96000000     50.66000000
C17     63.89000000      2.83000000     52.55000000
C18     63.08000000      3.89000000     51.80000000
C19     61.68000000      4.14000000     52.40000000
C20     61.19000000      3.09000000     53.42000000
C21     59.96000000      3.57000000     54.20000000
C22     59.13000000      2.78000000     55.23000000
C23     58.10000000      3.81000000     55.74000000
C24     57.15000000      3.52000000     56.87000000
C25     56.59000000      4.40000000     57.73000000
C26     55.63000000      3.99000000     58.81000000
C27     54.92000000      4.93000000     59.79000000
C28     55.57000000      5.09000000     61.16000000
C29     54.55000000      5.30000000     62.29000000
C30     53.95000000      4.00000000     62.85000000
C31     53.71000000      4.18000000     64.36000000
C32     53.26000000      2.98000000     65.20000000
C33     54.32000000      2.03000000     65.76000000
C34     68.37000000      1.25000000     52.81000000
OS35     67.81000000     99.97000000     53.19000000
C36     68.59000000     99.16000000     53.97000000
O37     69.81000000     99.30000000     54.03000000
C38     67.87000000     97.87000000     54.32000000
C39     67.85000000     97.62000000     55.83000000
C40     66.61000000     98.24000000     56.47000000
C41     66.57000000     98.02000000     57.98000000
C42     65.17000000     98.34000000     58.49000000
C43     65.09000000     98.19000000     60.01000000
C44     65.46000000     99.47000000     60.74000000