23400
Energy = 371641.80638862 au
 C1      0.77000000      1.00000000     45.33000000
 C2      3.04000000      0.93000000     44.62000000
 C3      1.75000000      3.01000000     44.43000000
 N4      2.01000000      1.79000000     45.20000000
 C5      2.55000000      2.16000000     46.53000000
 C6      1.72000000      3.11000000     47.41000000
OS7      0.54000000      2.41000000     47.74000000
 P8     99.70000000      3.03000000     48.92000000
OM9     99.44000000      4.23000000     48.09000000
OM10     98.82000000      1.86000000     48.98000000
OS11      0.95000000      2.89000000     49.85000000
C12      1.04000000      1.69000000     50.61000000
C13      2.49000000      1.47000000     51.05000000
OS14      2.68000000      0.29000000     51.85000000
C15      3.48000000     99.41000000     51.22000000
O16      3.96000000     99.69000000     50.11000000
C17      3.54000000     98.06000000     51.89000000
C18      4.16000000     97.09000000     50.87000000
C19      4.01000000     95.60000000     51.19000000
C20      4.90000000     95.12000000     52.34000000
C21      5.03000000     93.66000000     52.86000000
C22      5.50000000     93.65000000     54.33000000
C23      5.61000000     92.36000000     55.16000000
C24      6.24000000     92.57000000     56.53000000
C25      6.67000000     91.68000000     57.45000000
C26      7.33000000     91.88000000     58.80000000
C27      7.89000000     90.69000000     59.60000000
C28      7.08000000     90.39000000     60.87000000
C29      7.69000000     89.51000000     61.97000000
C30      8.52000000     90.27000000     63.02000000
C31      8.39000000     89.66000000     64.43000000
C32      9.42000000     90.15000000     65.45000000
C33      9.00000000     91.40000000     66.21000000
C34      2.94000000      2.76000000     51.74000000
OS35      2.19000000      3.00000000     52.92000000
C36      2.91000000      3.42000000     53.96000000
O37      2.89000000      4.62000000     54.19000000
C38      3.97000000      2.39000000     54.35000000
C39      3.98000000      2.04000000     55.84000000
C40      5.37000000      1.77000000     56.44000000
C41      5.37000000      2.13000000     57.93000000
C42      6.70000000      1.87000000     58.64000000
C43      6.60000000      2.12000000     60.14000000
C44      5.56000000      1.19000000     60.78000000
C45      5.82000000      0.95000000     62.27000000
C46      4.79000000     99.97000000     62.85000000
C47      5.12000000     99.46000000     64.27000000
C48      5.41000000      0.63000000     65.20000000
C49      5.47000000      0.45000000     66.73000000
C50      5.37000000      1.88000000     67.25000000
C51      6.04000000      2.27000000     68.56000000
C52      5.96000000      3.80000000     68.60000000
 C1      7.23000000      1.22000000     45.36000000
 C2      9.54000000      0.84000000     44.93000000
 C3      8.68000000      3.12000000     44.94000000
 N4      8.58000000      1.77000000     45.51000000
 C5      8.93000000      1.82000000     46.96000000
 C6      8.18000000      2.85000000     47.82000000
OS7      6.77000000      2.71000000     47.72000000
 P8      5.96000000      3.58000000     48.76000000
OM9      6.34000000      4.79000000     48.00000000
OM10      4.69000000      2.92000000     48.47000000
OS11      6.78000000      3.04000000     49.99000000
C12      6.20000000      2.48000000     51.16000000
C13      7.18000000      1.68000000     52.04000000
OS14      6.88000000      0.29000000     52.01000000
C15      7.82000000     99.53000000     51.42000000
O16      8.39000000     99.73000000     50.34000000
C17      8.05000000     98.50000000     52.48000000
C18      8.27000000     97.13000000     51.94000000
C19      7.75000000     96.27000000     53.07000000
C20      8.38000000     96.25000000     54.45000000
C21      8.65000000     94.78000000     54.75000000
C22      9.33000000     94.52000000     56.08000000
C23      9.72000000     93.05000000     56.11000000
C24     10.75000000     92.71000000     57.13000000
C25     10.79000000     92.33000000     58.42000000
C26     12.11000000     91.99000000     59.06000000
C27     12.53000000     91.08000000     60.22000000
C28     11.47000000     90.95000000     61.30000000
C29     11.84000000     89.86000000     62.31000000
C30     12.90000000     90.24000000     63.33000000
C31     12.88000000     89.17000000     64.41000000
C32     13.79000000     89.54000000     65.58000000
C33     13.35000000     90.87000000     66.19000000
C34      7.37000000      2.14000000     53.50000000
OS35      8.58000000      2.88000000     53.75000000
C36      9.20000000      2.89000000     54.98000000
O37      9.73000000      3.91000000     55.36000000
C38      9.08000000      1.73000000     55.91000000
C39      9.93000000      2.03000000     57.16000000
C40     11.46000000      1.89000000     57.10000000
C41     11.97000000      2.01000000     58.53000000
C42     13.24000000      1.25000000     58.87000000
C43     13.36000000      1.25000000     60.39000000
C44     11.95000000      1.27000000     60.96000000
C45     11.98000000      1.16000000     62.47000000
C46     10.57000000      0.87000000     62.97000000
C47     10.66000000      0.31000000     64.38000000
C48     11.58000000      1.18000000     65.21000000
C49     11.38000000      0.76000000     66.65000000
C50     12.05000000      1.68000000     67.66000000
C51     13.27000000      0.96000000     68.22000000
C52     13.51000000      1.37000000     69.67000000
 C1     14.49000000      0.55000000     45.42000000
 C2     16.42000000      1.64000000     44.61000000
 C3     14.33000000      2.87000000     44.78000000
 N4     15.20000000      1.84000000     45.37000000
 C5     15.64000000      2.28000000     46.72000000
 C6     14.56000000      2.62000000     47.75000000
OS7     13.78000000      1.46000000     47.94000000
 P8     12.77000000      1.49000000     49.13000000
OM9     12.05000000      2.54000000     48.35000000
OM10     12.42000000      0.09000000     48.89000000
OS11     13.89000000      1.87000000     50.24000000
C12     14.16000000      1.20000000     51.52000000
C13     15.38000000      1.60000000     52.45000000
OS14     16.09000000      0.39000000     52.71000000
C15     16.94000000     99.99000000     51.73000000
O16     16.86000000      0.27000000     50.53000000
C17     17.78000000     98.90000000     52.31000000
C18     18.66000000     98.31000000     51.23000000
C19     19.40000000     97.23000000     51.98000000
C20     20.37000000     97.86000000     52.98000000
C21     20.92000000     96.88000000     54.02000000
C22     22.34000000     96.66000000     54.57000000
C23     22.34000000     96.10000000     56.00000000
C24     23.51000000     96.43000000     56.87000000
C25     23.64000000     96.19000000     58.19000000
C26     24.85000000     96.56000000     58.99000000
C27     25.23000000     95.57000000     60.11000000
C28     24.15000000     95.52000000     61.20000000
C29     24.71000000     94.86000000     62.46000000
C30     25.66000000     95.84000000     63.15000000
C31     26.31000000     95.22000000     64.39000000
C32     27.13000000     96.27000000     65.13000000
C33     26.20000000     97.31000000     65.76000000
C34     15.36000000      2.51000000     53.76000000
OS35     15.64000000      3.86000000     54.40000000
C36     15.52000000      5.27000000     54.55000000
O37     15.03000000      5.92000000     53.66000000
C38     15.96000000      6.26000000     55.66000000
C39     16.46000000      6.38000000     57.10000000
C40     17.92000000      5.96000000     57.22000000
C41     18.82000000      5.77000000     58.45000000
C42     18.77000000      4.44000000     59.17000000
C43     18.57000000      4.54000000     60.67000000
C44     18.27000000      3.14000000     61.19000000
C45     17.74000000      3.26000000     62.61000000
C46     16.87000000      2.06000000     62.97000000
C47     16.69000000      2.10000000     64.48000000
C48     17.67000000      3.17000000     64.96000000
C49     17.85000000      3.26000000     66.47000000
C50     18.60000000      4.55000000     66.74000000
C51     18.43000000      5.03000000     68.17000000
C52     18.18000000      6.53000000     68.28000000
 C1     21.62000000      3.46000000     45.55000000
 C2     20.26000000      1.73000000     44.67000000
 C3     22.64000000      1.34000000     44.94000000
 N4     21.44000000      1.99000000     45.48000000
 C5     21.13000000      1.47000000     46.84000000
 C6     22.27000000      1.37000000     47.87000000
OS7     22.91000000      2.62000000     47.87000000
 P8     23.86000000      3.05000000     49.04000000
OM9     24.82000000      2.23000000     48.24000000
OM10     23.47000000      4.42000000     48.70000000
OS11     23.02000000      2.31000000     50.18000000
C12     22.24000000      3.10000000     51.07000000
C13     21.04000000      2.37000000     51.75000000
OS14     19.82000000      3.15000000     51.63000000
C15     18.88000000      2.92000000     50.67000000
O16     19.10000000      2.32000000     49.61000000
C17     17.74000000      3.91000000     50.91000000
C18     16.35000000      3.90000000     50.25000000
C19     15.30000000      4.78000000     50.98000000
C20     13.76000000      4.60000000     51.30000000
C21     12.95000000      4.19000000     52.61000000
C22     12.54000000      4.03000000     54.14000000
C23     12.49000000      5.16000000     55.22000000
C24     12.18000000      5.10000000     56.69000000
C25     11.11000000      5.55000000     57.37000000
C26     11.04000000      5.41000000     58.85000000
C27      9.84000000      4.76000000     59.53000000
C28     10.42000000      4.28000000     60.85000000
C29      9.63000000      4.66000000     62.07000000
C30      8.64000000      3.67000000     62.62000000
C31      8.84000000      3.84000000     64.11000000
C32      8.02000000      2.89000000     64.93000000
C33      8.61000000      2.94000000     66.33000000
C34     21.36000000      2.04000000     53.23000000
OS35     21.68000000      0.67000000     53.50000000
C36     21.85000000      0.25000000     54.79000000
O37     22.73000000     99.44000000     55.08000000
C38     21.09000000      0.99000000     55.84000000
C39     21.13000000      0.14000000     57.10000000
C40     20.30000000     98.87000000     56.89000000
C41     19.90000000     98.32000000     58.24000000
C42     18.83000000     99.29000000     58.72000000
C43     18.70000000     99.18000000     60.23000000
C44     20.07000000     99.49000000     60.82000000
C45     20.05000000     99.09000000     62.28000000
C46     19.98000000      0.34000000     63.11000000
C47     19.50000000    100.00000000     64.51000000
C48     20.53000000     99.23000000     65.30000000
C49     20.11000000     99.47000000     66.74000000
C50     20.82000000     98.52000000     67.68000000
C51     20.26000000     98.78000000     69.08000000
C52     21.03000000     97.93000000     70.08000000
 C1     26.57000000      2.12000000     45.44000000
 C2     27.94000000      0.30000000     44.76000000
 C3     28.63000000      2.57000000     44.21000000
 N4     27.96000000      1.69000000     45.18000000
 C5     28.71000000      1.69000000     46.46000000
 C6     29.06000000      3.08000000     47.01000000
OS7     27.86000000      3.74000000     47.37000000
 P8     27.91000000      4.20000000     48.90000000
OM9     28.89000000      5.21000000     48.47000000
OM10     26.52000000      4.54000000     49.09000000
OS11     28.43000000      2.76000000     49.42000000
C12     27.75000000      1.83000000     50.27000000
C13     28.60000000      0.72000000     50.99000000
OS14     27.62000000     99.93000000     51.61000000
C15     28.02000000     98.67000000     51.48000000
O16     28.23000000     98.27000000     50.35000000
C17     27.73000000     97.90000000     52.74000000
C18     26.69000000     96.96000000     52.23000000
C19     25.68000000     96.66000000     53.31000000
C20     26.11000000     95.77000000     54.43000000
C21     25.21000000     94.57000000     54.22000000
C22     25.50000000     93.62000000     55.35000000
C23     24.32000000     92.69000000     55.53000000
C24     24.31000000     92.54000000     57.00000000
C25     23.28000000     92.41000000     57.82000000
C26     23.48000000     92.39000000     59.29000000
C27     22.64000000     91.39000000     60.07000000
C28     22.13000000     92.17000000     61.27000000
C29     21.79000000     91.24000000     62.41000000
C30     23.10000000     90.71000000     62.98000000
C31     22.83000000     90.05000000     64.32000000
C32     24.18000000     89.93000000     65.01000000
C33     24.83000000     91.30000000     65.15000000
C34     29.72000000      0.79000000     52.09000000
OS35     30.76000000      0.85000000     53.12000000
C36     31.41000000      1.69000000     54.01000000
O37     31.35000000      2.90000000     54.18000000
C38     32.45000000      0.93000000     54.75000000
C39     32.23000000      1.38000000     56.18000000
C40     30.89000000      0.79000000     56.59000000
C41     30.58000000      1.24000000     58.01000000
C42     29.54000000      0.31000000     58.61000000
C43     29.49000000      0.58000000     60.11000000
C44     29.05000000     99.30000000     60.82000000
C45     29.29000000     99.40000000     62.33000000
C46     28.29000000      0.33000000     63.00000000
C47     28.29000000      0.17000000     64.52000000
C48     29.45000000      0.85000000     65.23000000
C49     29.39000000      0.43000000     66.70000000
C50     30.57000000      0.92000000     67.52000000
C51     30.53000000      0.24000000     68.89000000
C52     31.77000000      0.60000000     69.70000000
 C1     34.82000000      3.48000000     45.24000000
 C2     33.41000000      1.63000000     44.61000000
 C3     35.80000000      1.29000000     45.00000000
 N4     34.58000000      2.03000000     45.38000000
 C5     34.27000000      1.67000000     46.79000000
 C6     35.35000000      1.97000000     47.83000000
OS7     35.53000000      3.37000000     47.96000000
 P8     36.81000000      3.88000000     48.75000000
OM9     37.68000000      3.62000000     47.57000000
OM10     36.23000000      5.19000000     49.00000000
OS11     36.72000000      2.80000000     49.90000000
C12     35.80000000      3.22000000     50.92000000
C13     34.82000000      2.14000000     51.38000000
OS14     33.57000000      2.76000000     51.79000000
C15     32.55000000      2.97000000     50.90000000
O16     32.41000000      2.34000000     49.83000000
C17     31.64000000      4.08000000     51.43000000
C18     30.11000000      3.90000000     51.41000000
C19     29.11000000      3.85000000     52.64000000
C20     27.56000000      3.98000000     52.67000000
C21     26.99000000      4.73000000     53.89000000
C22     25.54000000      4.42000000     54.32000000
C23     25.20000000      5.15000000     55.63000000
C24     23.90000000      5.02000000     56.40000000
C25     22.84000000      4.71000000     57.17000000
C26     22.68000000      3.51000000     58.06000000
C27     21.93000000      3.50000000     59.40000000
C28     22.54000000      4.30000000     60.55000000
C29     21.77000000      4.30000000     61.88000000
C30     22.03000000      3.16000000     62.87000000
C31     21.60000000      3.64000000     64.26000000
C32     21.68000000      2.67000000     65.44000000
C33     23.03000000      2.00000000     65.63000000
C34     35.60000000      1.32000000     52.42000000
OS35     35.04000000      0.05000000     52.76000000
C36     35.74000000     99.45000000     53.75000000
O37     36.83000000     99.85000000     54.16000000
C38     34.96000000     98.31000000     54.35000000
C39     35.23000000     98.55000000     55.82000000
C40     34.01000000     98.42000000     56.71000000
C41     34.34000000     98.85000000     58.13000000
C42     33.02000000     98.83000000     58.90000000
C43     33.14000000     99.05000000     60.40000000
C44     33.43000000      0.46000000     60.90000000
C45     33.23000000      0.36000000     62.41000000
C46     33.43000000      1.64000000     63.22000000
C47     33.23000000      1.35000000     64.71000000
C48     34.29000000      0.41000000     65.29000000
C49     34.01000000      0.05000000     66.76000000
C50     34.73000000     98.76000000     67.17000000
C51     33.91000000     97.92000000     68.16000000
C52     34.35000000     98.13000000     69.61000000
 C1     40.86000000      0.56000000     45.26000000
 C2     42.47000000      2.21000000     44.70000000
 C3     40.11000000      2.82000000     44.99000000
 N4     41.23000000      1.98000000     45.42000000
 C5     41.50000000      2.32000000     46.84000000
 C6     40.39000000      2.05000000     47.87000000
OS7     40.19000000      0.65000000     47.97000000
 P8     38.81000000      0.23000000     48.58000000
OM9     38.06000000      0.67000000     47.37000000
OM10     39.03000000     98.79000000     48.69000000
OS11     38.97000000      1.06000000     49.91000000
C12     39.76000000      0.35000000     50.87000000
C13     40.95000000      1.14000000     51.44000000
OS14     42.22000000      0.36000000     51.20000000
C15     43.16000000      0.29000000     50.13000000
O16     43.14000000      1.08000000     49.18000000
C17     44.21000000     99.10000000     50.13000000
C18     45.73000000     99.01000000     49.67000000
C19     47.09000000     98.31000000     50.19000000
C20     48.24000000     98.44000000     51.33000000
C21     49.43000000     98.90000000     52.32000000
C22     50.43000000     99.48000000     53.44000000
C23     50.85000000     99.03000000     54.91000000
C24     51.26000000     99.74000000     56.28000000
C25     52.03000000     99.99000000     57.44000000
C26     53.10000000    100.00000000     58.60000000
C27     54.20000000     99.18000000     59.43000000
C28     54.74000000     98.05000000     60.41000000
C29     54.56000000     97.70000000     61.93000000
C30     55.35000000     98.26000000     63.15000000
C31     54.70000000     98.04000000     64.55000000
C32     55.57000000     98.45000000     65.76000000
C33     55.14000000     99.27000000     66.99000000
C34     40.25000000      1.77000000     52.73000000
OS35     40.71000000      2.93000000     53.50000000
C36     40.06000000      3.75000000     54.43000000
O37     38.84000000      3.88000000     54.46000000
C38     41.05000000      4.71000000     55.15000000
C39     40.67000000      5.65000000     56.34000000
C40     41.35000000      6.46000000     57.50000000
C41     42.76000000      7.09000000     57.55000000
C42     43.59000000      6.93000000     58.86000000
C43     44.22000000      5.87000000     59.80000000
C44     43.37000000      5.22000000     60.91000000
C45     44.03000000      4.90000000     62.30000000
C46     43.06000000      4.77000000     63.49000000
C47     43.72000000      4.29000000     64.77000000
C48     43.82000000      5.27000000     65.93000000
C49     42.46000000      5.31000000     66.61000000
C50     42.47000000      6.23000000     67.80000000
C51     43.00000000      5.57000000     69.05000000
C52     41.88000000      5.70000000     70.07000000
 C1     49.10000000      2.67000000     45.16000000
 C2     46.88000000      3.26000000     44.52000000
 C3     47.62000000      0.94000000     44.33000000
 N4     47.71000000      2.19000000     45.08000000
 C5     47.16000000      1.97000000     46.44000000
 C6     47.76000000      0.81000000     47.24000000
OS7     49.14000000      1.06000000     47.45000000
 P8     49.84000000      0.26000000     48.63000000
OM9     49.51000000     99.02000000     47.86000000
OM10     51.07000000      0.96000000     48.24000000
OS11     48.64000000      0.76000000     49.61000000
C12     48.26000000      1.73000000     50.62000000
C13     46.75000000      1.77000000     51.12000000
OS14     46.35000000      3.18000000     51.10000000
C15     46.49000000      4.09000000     50.06000000
O16     46.72000000      3.80000000     48.88000000
C17     45.91000000      5.46000000     50.44000000
C18     46.71000000      6.38000000     51.36000000
C19     45.99000000      6.81000000     52.66000000
C20     46.13000000      7.67000000     53.99000000
C21     46.27000000      9.13000000     54.49000000
C22     46.31000000      9.40000000     56.00000000
C23     46.65000000     10.87000000     56.20000000
C24     46.30000000     11.78000000     57.36000000
C25     46.70000000     12.91000000     57.99000000
C26     46.16000000     13.69000000     59.15000000
C27     46.77000000     13.39000000     60.52000000
C28     47.37000000     14.59000000     61.28000000
C29     47.22000000     14.53000000     62.81000000
C30     46.47000000     15.68000000     63.53000000
C31     46.20000000     15.65000000     65.05000000
C32     45.00000000     16.50000000     65.48000000
C33     44.45000000     16.09000000     66.86000000
C34     46.33000000      0.81000000     52.36000000
OS35     45.02000000      0.10000000     52.67000000
C36     44.42000000     99.20000000     53.62000000
O37     45.05000000     98.82000000     54.59000000
C38     42.90000000     99.00000000     53.84000000
C39     42.47000000     98.54000000     55.29000000
C40     42.12000000     99.36000000     56.59000000
C41     42.24000000     98.57000000     57.94000000
C42     42.52000000     99.21000000     59.35000000
C43     43.53000000     98.51000000     60.35000000
C44     44.16000000     98.77000000     61.77000000
C45     45.30000000     99.60000000     62.47000000
C46     46.08000000      0.87000000     62.99000000
C47     45.73000000      1.76000000     64.18000000
C48     45.95000000      1.14000000     65.56000000
C49     45.46000000      1.92000000     66.78000000
C50     44.15000000      1.41000000     67.40000000
C51     43.71000000      2.05000000     68.72000000
C52     44.30000000      1.34000000     69.93000000
 C1     54.58000000      3.37000000     45.31000000
 C2     53.02000000      1.65000000     44.67000000
 C3     55.37000000      1.11000000     45.11000000
 N4     54.21000000      1.95000000     45.45000000
 C5     53.82000000      1.63000000     46.85000000
 C6     54.85000000      1.88000000     47.96000000
OS7     55.07000000      3.27000000     48.08000000
 P8     56.41000000      3.69000000     48.78000000
OM9     57.19000000      3.45000000     47.53000000
OM10     55.95000000      5.03000000     49.15000000
OS11     56.38000000      2.61000000     49.93000000
C12     55.91000000      3.04000000     51.21000000
C13     54.61000000      2.37000000     51.72000000
OS14     53.59000000      3.37000000     51.86000000
C15     52.33000000      2.88000000     51.77000000
O16     51.76000000      2.70000000     50.69000000
C17     51.66000000      3.13000000     53.11000000
C18     50.20000000      2.72000000     53.05000000
C19     49.46000000      3.00000000     54.36000000
C20     47.91000000      2.94000000     54.36000000
C21     46.68000000      3.83000000     54.07000000
C22     45.66000000      4.60000000     54.98000000
C23     44.71000000      4.89000000     56.18000000
C24     43.69000000      4.08000000     57.01000000
C25     42.70000000      3.50000000     57.77000000
C26     41.50000000      3.05000000     58.61000000
C27     40.18000000      3.63000000     59.22000000
C28     39.90000000      4.86000000     60.12000000
C29     40.10000000      5.09000000     61.63000000
C30     39.39000000      4.18000000     62.62000000
C31     39.68000000      4.51000000     64.10000000
C32     39.61000000      3.14000000     64.79000000
C33     39.96000000      3.05000000     66.28000000
C34     54.91000000      1.66000000     53.07000000
OS35     53.90000000      1.00000000     53.91000000
C36     54.34000000     99.73000000     54.06000000
O37     55.21000000     99.48000000     53.23000000
C38     54.01000000     98.88000000     55.35000000
C39     53.48000000     97.44000000     55.79000000
C40     53.22000000     96.85000000     57.23000000
C41     51.92000000     96.27000000     57.88000000
C42     51.03000000     97.03000000     58.92000000
C43     51.32000000     97.17000000     60.45000000
C44     51.35000000     98.63000000     61.00000000
C45     51.55000000     98.96000000     62.49000000
C46     52.38000000      0.20000000     62.87000000
C47     52.18000000      0.72000000     64.31000000
C48     51.94000000     99.65000000     65.36000000
C49     51.89000000     99.96000000     66.86000000
C50     51.83000000     98.57000000     67.52000000
C51     51.73000000     98.50000000     69.04000000
C52     53.06000000     98.04000000     69.63000000
 C1     60.52000000      0.50000000     45.37000000
 C2     62.15000000      2.16000000     44.81000000
 C3     59.76000000      2.76000000     45.02000000
 N4     60.88000000      1.93000000     45.49000000
 C5     61.14000000      2.30000000     46.90000000
 C6     60.05000000      2.04000000     47.93000000
OS7     59.91000000      0.63000000     48.15000000
 P8     58.55000000      0.24000000     48.84000000
OM9     57.73000000      0.53000000     47.64000000
OM10     58.79000000     98.85000000     49.22000000
OS11     58.69000000      1.26000000     50.04000000
C12     59.38000000      0.77000000     51.19000000
C13     60.58000000      1.63000000     51.62000000
OS14     61.49000000      0.85000000     52.40000000
C15     62.77000000      1.26000000     52.25000000
O16     63.15000000      1.88000000     51.25000000
C17     63.65000000      0.51000000     53.22000000
C18     64.35000000     99.43000000     52.44000000
C19     65.83000000     99.29000000     52.79000000
C20     66.19000000     99.48000000     54.26000000
C21     67.69000000     99.25000000     54.30000000
C22     68.42000000     99.81000000     55.50000000
C23     69.93000000     99.60000000     55.44000000
C24     70.74000000      0.18000000     56.56000000
C25     71.58000000     99.50000000     57.35000000
C26     72.41000000      0.06000000     58.45000000
C27     72.62000000     99.12000000     59.63000000
C28     73.46000000     99.74000000     60.75000000
C29     73.61000000     98.78000000     61.92000000
C30     74.44000000     99.41000000     63.03000000
C31     74.43000000     98.62000000     64.34000000
C32     74.96000000     99.47000000     65.49000000
C33     74.28000000     99.18000000     66.83000000
C34     60.09000000      2.99000000     52.19000000
OS35     60.87000000      3.50000000     53.29000000
C36     60.30000000      3.23000000     54.49000000
O37     59.08000000      3.32000000     54.65000000
C38     61.31000000      3.30000000     55.61000000
C39     61.80000000      4.73000000     55.64000000
C40     62.63000000      5.07000000     56.84000000
C41     62.03000000      4.53000000     58.12000000
C42     63.18000000      4.67000000     59.07000000
C43     62.72000000      4.89000000     60.49000000
C44     62.48000000      3.60000000     61.23000000
C45     62.62000000      3.98000000     62.70000000
C46     63.08000000      2.75000000     63.46000000
C47     63.46000000      3.01000000     64.91000000
C48     62.28000000      3.31000000     65.84000000
C49     62.64000000      3.35000000     67.33000000
C50     62.13000000      4.63000000     67.99000000
C51     63.01000000      5.05000000     69.17000000
C52     62.74000000      6.48000000     69.65000000
 C1     66.81000000      0.52000000     45.55000000
 C2     68.83000000      1.45000000     44.76000000
 C3     66.76000000      2.74000000     44.58000000
 N4     67.55000000      1.79000000     45.36000000
 C5     67.91000000      2.37000000     46.69000000
 C6     66.79000000      2.99000000     47.54000000
OS7     65.82000000      1.98000000     47.72000000
 P8     64.65000000      2.10000000     48.79000000
OM9     64.05000000      2.97000000     47.73000000
OM10     64.63000000      0.64000000     48.63000000
OS11     65.62000000      2.80000000     49.84000000
C12     66.27000000      1.88000000     50.72000000
C13     67.15000000      2.42000000     51.87000000
OS14     68.26000000      1.50000000     52.16000000
C15     69.09000000      0.93000000     51.24000000
O16     69.12000000      1.20000000     50.04000000
C17     70.06000000     99.99000000     51.95000000
C18     70.32000000     98.68000000     51.23000000
C19     71.07000000     97.76000000     52.18000000
C20     72.15000000     98.51000000     52.98000000
C21     72.87000000     97.47000000     53.81000000
C22     73.45000000     97.81000000     55.17000000
C23     74.02000000     96.54000000     55.81000000
C24     74.78000000     97.00000000     57.00000000
C25     75.03000000     96.55000000     58.22000000
C26     75.87000000     97.45000000     59.04000000
C27     76.74000000     96.72000000     60.04000000
C28     75.88000000     96.18000000     61.14000000
C29     76.80000000     96.06000000     62.32000000
C30     77.47000000     97.41000000     62.53000000
C31     77.96000000     97.44000000     63.96000000
C32     78.72000000     98.73000000     64.20000000
C33     78.42000000     99.21000000     65.61000000
C34     66.23000000      2.70000000     53.11000000
OS35     66.55000000      3.51000000     54.28000000
C36     65.61000000      3.72000000     55.27000000
O37     64.50000000      3.23000000     55.10000000
C38     65.88000000      4.91000000     56.25000000
C39     66.26000000      5.68000000     57.57000000
C40     67.76000000      5.84000000     57.90000000
C41     68.49000000      6.01000000     59.22000000
C42     69.49000000      4.84000000     59.30000000
C43     69.29000000      4.16000000     60.65000000
C44     69.47000000      2.66000000     60.95000000