23400
Energy = -112365.63084359 au
 C1      2.32000000      1.15000000     46.00000000
 C2      2.89000000      3.45000000     45.70000000
 C3      1.01000000      2.50000000     44.48000000
 N4      1.78000000      2.50000000     45.73000000
 C5      0.92000000      2.93000000     46.85000000
 C6     99.50000000      2.34000000     47.03000000
OS7     99.67000000      0.94000000     46.93000000
 P8     98.67000000     99.99000000     47.65000000
OM9     97.50000000      0.47000000     46.89000000
OM10     99.47000000     98.85000000     47.20000000
OS11     99.08000000      0.58000000     49.06000000
C12      0.10000000     99.86000000     49.76000000
C13      1.48000000      0.56000000     49.80000000
OS14      2.61000000     99.62000000     50.06000000
C15      3.55000000     99.01000000     49.24000000
O16      3.74000000     99.46000000     48.10000000
C17      4.61000000     98.03000000     49.90000000
C18      4.67000000     97.36000000     51.33000000
C19      5.75000000     97.18000000     52.47000000
C20      5.92000000     98.06000000     53.78000000
C21      6.77000000     97.66000000     55.04000000
C22      7.44000000     98.69000000     55.99000000
C23      8.41000000     98.59000000     57.22000000
C24      9.92000000     98.39000000     57.24000000
C25     10.73000000     97.89000000     58.22000000
C26     12.21000000     97.58000000     58.34000000
C27     12.80000000     97.22000000     59.74000000
C28     14.33000000     97.41000000     59.89000000
C29     15.28000000     96.88000000     60.99000000
C30     15.26000000     97.49000000     62.40000000
C31     16.49000000     96.97000000     63.17000000
C32     16.51000000     97.10000000     64.70000000
C33     16.44000000     98.52000000     65.26000000
C34      1.19000000      1.93000000     50.54000000
OS35      1.42000000      2.52000000     51.86000000
C36      0.36000000      2.92000000     52.66000000
O37     99.22000000      2.49000000     52.47000000
C38      0.73000000      3.85000000     53.85000000
C39      0.32000000      3.47000000     55.30000000
C40      0.99000000      4.33000000     56.40000000
C41      0.94000000      3.79000000     57.85000000
C42      2.11000000      4.11000000     58.82000000
C43      1.79000000      3.76000000     60.29000000
C44      3.00000000      3.70000000     61.27000000
C45      2.66000000      3.54000000     62.77000000
C46      3.75000000      2.80000000     63.57000000
C47      4.22000000      3.44000000     64.89000000
C48      3.34000000      3.21000000     66.11000000
C49      3.96000000      3.97000000     67.29000000
C50      2.87000000      4.56000000     68.19000000
C51      3.46000000      5.65000000     69.08000000
C52      2.34000000      6.49000000     69.67000000
 C1      6.22000000      1.59000000     46.92000000
 C2      5.59000000     99.63000000     45.80000000
 C3      7.06000000      1.20000000     44.70000000
 N4      6.70000000      0.57000000     45.98000000
 C5      7.78000000     99.78000000     46.61000000
 C6      9.24000000      0.28000000     46.47000000
OS7      9.39000000      1.66000000     46.79000000
 P8      9.74000000      2.10000000     48.30000000
OM9     10.88000000      2.75000000     47.64000000
OM10      8.49000000      2.86000000     48.40000000
OS11      9.68000000      0.65000000     49.01000000
C12      8.71000000      0.58000000     50.09000000
C13      7.95000000     99.45000000     50.87000000
OS14      6.77000000      0.06000000     51.50000000
C15      5.79000000      0.86000000     50.94000000
O16      5.86000000      1.22000000     49.76000000
C17      4.62000000      1.27000000     51.86000000
C18      3.83000000      0.37000000     52.85000000
C19      2.65000000     99.36000000     52.92000000
C20      1.34000000     99.76000000     53.62000000
C21      0.22000000     98.72000000     53.46000000
C22      0.16000000     97.69000000     54.60000000
C23     99.50000000     98.25000000     55.86000000
C24     99.34000000     97.17000000     56.89000000
C25     98.31000000     96.93000000     57.72000000
C26     98.27000000     95.79000000     58.69000000
C27     97.51000000     96.03000000     60.00000000
C28     98.15000000     97.10000000     60.89000000
C29     97.57000000     97.03000000     62.31000000
C30     98.07000000     95.80000000     63.08000000
C31     97.02000000     95.38000000     64.11000000
C32     97.47000000     94.23000000     65.02000000
C33     98.11000000     94.77000000     66.30000000
C34      8.79000000     98.76000000     52.01000000
OS35      8.83000000     97.35000000     52.47000000
C36      9.54000000     96.93000000     53.61000000
O37     10.09000000     97.74000000     54.33000000
C38      9.54000000     95.44000000     54.03000000
C39     10.15000000     95.05000000     55.40000000
C40      9.17000000     95.22000000     56.58000000
C41      9.34000000     94.89000000     58.09000000
C42      8.17000000     95.58000000     58.86000000
C43      8.32000000     96.00000000     60.34000000
C44      7.43000000     97.22000000     60.70000000
C45      7.01000000     97.33000000     62.18000000
C46      6.64000000     98.76000000     62.61000000
C47      5.93000000     98.96000000     63.96000000
C48      6.81000000     98.77000000     65.20000000
C49      6.18000000     99.28000000     66.51000000
C50      7.18000000     99.29000000     67.67000000
C51      7.68000000     97.90000000     68.07000000
C52      8.80000000     97.99000000     69.11000000
 C1     13.93000000      2.79000000     47.04000000
 C2     12.74000000      0.89000000     46.34000000
 C3     14.45000000      1.79000000     44.91000000
 N4     14.05000000      1.52000000     46.30000000
 C5     14.92000000      0.57000000     47.02000000
 C6     16.44000000      0.63000000     46.79000000
OS7     17.00000000      1.96000000     46.75000000
 P8     17.41000000      2.66000000     48.14000000
OM9     18.85000000      2.69000000     47.87000000
OM10     16.57000000      3.85000000     47.95000000
OS11     16.83000000      1.60000000     49.16000000
C12     16.00000000      2.05000000     50.22000000
C13     14.97000000      1.01000000     50.74000000
OS14     14.02000000      1.77000000     51.54000000
C15     12.94000000      2.32000000     50.91000000
O16     12.74000000      2.17000000     49.70000000
C17     12.06000000      3.13000000     51.86000000
C18     10.57000000      2.76000000     51.80000000
C19     10.00000000      2.08000000     53.07000000
C20      8.47000000      1.94000000     53.26000000
C21      7.67000000      1.52000000     54.51000000
C22      7.83000000      2.33000000     55.81000000
C23      6.85000000      2.43000000     56.99000000
C24      6.57000000      1.36000000     58.03000000
C25      5.70000000      1.53000000     59.04000000
C26      5.19000000      0.66000000     60.15000000
C27      3.65000000      0.67000000     60.17000000
C28      2.86000000      0.07000000     61.34000000
C29      1.36000000      0.35000000     61.13000000
C30      0.49000000     99.87000000     62.30000000
C31      0.95000000      0.49000000     63.62000000
C32      0.24000000     99.91000000     64.83000000
C33      0.84000000      0.47000000     66.12000000
C34     15.65000000     99.70000000     51.26000000
OS35     15.05000000     98.62000000     52.05000000
C36     15.67000000     97.88000000     53.04000000
O37     16.88000000     97.88000000     53.25000000
C38     14.69000000     96.98000000     53.83000000
C39     15.13000000     96.41000000     55.20000000
C40     14.10000000     95.46000000     55.85000000
C41     14.51000000     94.90000000     57.24000000
C42     13.43000000     94.13000000     58.05000000
C43     13.81000000     93.97000000     59.54000000
C44     12.71000000     93.63000000     60.57000000
C45     12.54000000     94.51000000     61.84000000
C46     13.42000000     94.29000000     63.09000000
C47     13.16000000     95.33000000     64.20000000
C48     13.75000000     95.09000000     65.60000000
C49     13.55000000     96.27000000     66.57000000
C50     13.75000000     95.87000000     68.04000000
C51     13.51000000     97.03000000     69.02000000
C52     14.71000000     97.97000000     69.11000000
 C1     20.52000000      2.56000000     45.55000000
 C2     19.44000000      0.50000000     45.31000000
 C3     20.89000000      1.29000000     43.55000000
 N4     20.67000000      1.21000000     44.99000000
 C5     21.70000000      0.43000000     45.71000000
 C6     23.19000000      0.83000000     45.59000000
OS7     23.50000000      2.18000000     45.92000000
 P8     23.74000000      2.64000000     47.46000000
OM9     25.15000000      2.59000000     47.06000000
OM10     22.83000000      3.73000000     47.07000000
OS11     23.12000000      1.33000000     48.10000000
C12     22.15000000      1.57000000     49.12000000
C13     21.42000000      0.33000000     49.68000000
OS14     20.34000000      0.78000000     50.52000000
C15     19.27000000     99.96000000     50.69000000
O16     18.74000000     99.40000000     49.73000000
C17     18.78000000      0.05000000     52.13000000
C18     18.25000000      1.40000000     52.66000000
C19     18.03000000      1.41000000     54.17000000
C20     16.67000000      0.86000000     54.56000000
C21     16.64000000      0.39000000     56.01000000
C22     15.19000000      0.03000000     56.30000000
C23     14.90000000     99.78000000     57.77000000
C24     13.81000000      0.64000000     58.35000000
C25     13.00000000      0.81000000     59.42000000
C26     12.48000000      0.41000000     60.78000000
C27     11.04000000     99.90000000     60.87000000
C28     10.55000000     99.63000000     62.29000000
C29     11.54000000     98.74000000     63.03000000
C30     10.89000000     98.21000000     64.30000000
C31     10.06000000     96.99000000     63.91000000
C32      9.29000000     96.39000000     65.07000000
C33     10.17000000     95.76000000     66.14000000
C34     22.45000000     99.42000000     50.41000000
OS35     21.83000000     98.34000000     51.15000000
C36     22.07000000     98.33000000     52.50000000
O37     23.18000000     98.58000000     52.95000000
C38     20.93000000     97.65000000     53.27000000
C39     21.21000000     97.31000000     54.74000000
C40     19.96000000     97.47000000     55.61000000
C41     20.22000000     97.14000000     57.09000000
C42     19.05000000     97.50000000     58.02000000
C43     19.30000000     97.04000000     59.47000000
C44     19.25000000     98.21000000     60.46000000
C45     19.56000000     97.83000000     61.91000000
C46     19.87000000     99.10000000     62.73000000
C47     19.75000000     99.02000000     64.26000000
C48     20.90000000     98.40000000     65.04000000
C49     20.67000000     98.47000000     66.55000000
C50     21.72000000     97.65000000     67.30000000
C51     21.52000000     97.72000000     68.82000000
C52     21.92000000     99.09000000     69.36000000
 C1     26.98000000      3.14000000     44.94000000
 C2     26.10000000      1.32000000     43.75000000
 C3     28.46000000      1.83000000     43.60000000
 N4     27.28000000      1.78000000     44.47000000
 C5     27.47000000      0.90000000     45.66000000
 C6     28.83000000      0.96000000     46.38000000
OS7     29.16000000      2.33000000     46.53000000
 P8     30.32000000      2.83000000     47.49000000
OM9     31.19000000      2.04000000     46.58000000
OM10     29.89000000      4.18000000     47.05000000
OS11     29.45000000      2.12000000     48.62000000
C12     28.47000000      2.89000000     49.34000000
C13     27.47000000      2.05000000     50.17000000
OS14     26.72000000      2.86000000     51.10000000
C15     25.50000000      2.38000000     51.44000000
O16     24.70000000      2.03000000     50.56000000
C17     25.24000000      2.46000000     52.94000000
C18     24.65000000      3.78000000     53.35000000
C19     24.70000000      4.23000000     54.81000000
C20     23.50000000      3.93000000     55.70000000
C21     22.26000000      4.72000000     55.31000000
C22     21.06000000      4.29000000     56.14000000
C23     21.64000000      4.39000000     57.52000000
C24     21.05000000      3.43000000     58.48000000
C25     20.12000000      2.49000000     58.42000000
C26     19.80000000      1.67000000     59.63000000
C27     20.54000000      2.05000000     60.92000000
C28     20.21000000      3.37000000     61.62000000
C29     18.83000000      3.45000000     62.24000000
C30     18.60000000      2.42000000     63.33000000
C31     18.84000000      2.86000000     64.77000000
C32     18.07000000      1.91000000     65.68000000
C33     18.44000000      2.02000000     67.16000000
C34     28.28000000      0.94000000     50.89000000
OS35     27.57000000     99.96000000     51.68000000
C36     27.65000000      0.16000000     53.03000000
O37     28.23000000      1.13000000     53.50000000
C38     26.70000000     99.28000000     53.82000000
C39     27.08000000     99.02000000     55.28000000
C40     26.84000000      0.16000000     56.26000000
C41     26.83000000     99.59000000     57.69000000
C42     26.98000000      0.65000000     58.78000000
C43     26.54000000      0.17000000     60.17000000
C44     26.87000000      1.22000000     61.24000000
C45     26.22000000      0.91000000     62.59000000
C46     26.72000000      1.87000000     63.68000000
C47     25.89000000      1.72000000     64.96000000
C48     26.73000000      1.53000000     66.21000000
C49     25.91000000      1.12000000     67.44000000
C50     26.87000000      0.51000000     68.47000000
C51     26.18000000      0.04000000     69.75000000
C52     27.21000000     99.41000000     70.69000000
 C1     33.91000000      2.85000000     45.11000000
 C2     33.34000000      0.57000000     44.81000000
 C3     35.69000000      1.19000000     44.89000000
 N4     34.33000000      1.47000000     45.38000000
 C5     34.28000000      1.25000000     46.84000000
 C6     35.37000000      1.95000000     47.65000000
OS7     35.35000000      3.37000000     47.61000000
 P8     36.60000000      4.00000000     48.35000000
OM9     37.49000000      3.74000000     47.19000000
OM10     36.02000000      5.32000000     48.55000000
OS11     36.65000000      3.11000000     49.65000000
C12     35.65000000      3.32000000     50.66000000
C13     34.96000000      1.99000000     51.06000000
OS14     33.58000000      2.13000000     51.50000000
C15     32.62000000      2.61000000     50.67000000
O16     32.59000000      2.39000000     49.44000000
C17     31.37000000      2.88000000     51.49000000
C18     31.00000000      4.36000000     51.59000000
C19     29.66000000      4.60000000     52.30000000
C20     29.61000000      4.15000000     53.76000000
C21     28.43000000      4.77000000     54.52000000
C22     28.10000000      3.97000000     55.78000000
C23     27.36000000      4.78000000     56.84000000
C24     26.53000000      3.93000000     57.76000000
C25     25.52000000      4.30000000     58.57000000
C26     24.70000000      3.33000000     59.35000000
C27     23.80000000      3.86000000     60.46000000
C28     24.54000000      4.26000000     61.72000000
C29     23.58000000      4.47000000     62.89000000
C30     23.09000000      3.18000000     63.55000000
C31     22.66000000      3.50000000     64.98000000
C32     22.35000000      2.24000000     65.79000000
C33     22.20000000      2.59000000     67.27000000
C34     35.95000000      1.31000000     52.04000000
OS35     35.71000000     99.99000000     52.59000000
C36     36.59000000     99.69000000     53.59000000
O37     37.57000000      0.41000000     53.78000000
C38     36.25000000     98.40000000     54.35000000
C39     37.19000000     97.90000000     55.47000000
C40     37.41000000     98.87000000     56.64000000
C41     37.40000000     98.32000000     58.08000000
C42     36.76000000     99.44000000     58.91000000
C43     36.03000000     99.17000000     60.23000000
C44     35.22000000      0.42000000     60.56000000
C45     34.58000000      0.40000000     61.95000000
C46     33.85000000      1.69000000     62.31000000
C47     33.23000000      1.65000000     63.71000000
C48     34.24000000      1.54000000     64.84000000
C49     33.52000000      1.54000000     66.19000000
C50     34.44000000      1.14000000     67.34000000
C51     33.62000000      0.92000000     68.62000000
C52     34.50000000      0.40000000     69.76000000
 C1     41.63000000      0.57000000     45.71000000
 C2     42.79000000      2.58000000     45.18000000
 C3     40.35000000      2.58000000     45.20000000
 N4     41.58000000      2.04000000     45.80000000
 C5     41.65000000      2.46000000     47.22000000
 C6     40.39000000      2.16000000     48.04000000
OS7     40.18000000      0.75000000     48.15000000
 P8     38.73000000      0.35000000     48.55000000
OM9     38.05000000      0.72000000     47.28000000
OM10     38.72000000     98.95000000     48.95000000
OS11     38.58000000      1.28000000     49.81000000
C12     39.27000000      0.78000000     50.96000000
C13     40.51000000      1.55000000     51.46000000
OS14     41.58000000      0.59000000     51.73000000
C15     42.37000000      0.02000000     50.76000000
O16     42.73000000      0.59000000     49.72000000
C17     43.17000000     98.90000000     51.38000000
C18     44.46000000     98.68000000     50.59000000
C19     45.60000000     98.00000000     51.35000000
C20     45.91000000     98.69000000     52.69000000
C21     47.35000000     98.54000000     53.17000000
C22     47.64000000     98.40000000     54.68000000
C23     48.17000000     97.02000000     55.13000000
C24     48.61000000     96.90000000     56.56000000
C25     49.35000000     96.03000000     57.28000000
C26     49.66000000     96.21000000     58.75000000
C27     49.33000000     95.06000000     59.72000000
C28     49.87000000     95.43000000     61.10000000
C29     49.90000000     94.34000000     62.18000000
C30     50.94000000     94.73000000     63.24000000
C31     50.90000000     93.89000000     64.51000000
C32     52.07000000     94.21000000     65.45000000
C33     52.12000000     95.67000000     65.91000000
C34     40.01000000      2.51000000     52.58000000
OS35     40.98000000      3.28000000     53.32000000
C36     40.55000000      4.20000000     54.24000000
O37     39.42000000      4.68000000     54.21000000
C38     41.72000000      4.79000000     55.04000000
C39     41.42000000      5.10000000     56.51000000
C40     42.71000000      5.44000000     57.27000000
C41     42.57000000      5.71000000     58.78000000
C42     43.96000000      5.67000000     59.45000000
C43     44.00000000      5.90000000     60.97000000
C44     45.30000000      5.38000000     61.60000000
C45     45.14000000      4.79000000     63.00000000
C46     45.87000000      3.46000000     63.17000000
C47     45.44000000      2.77000000     64.46000000
C48     45.27000000      3.90000000     65.46000000
C49     44.63000000      3.53000000     66.80000000
C50     44.16000000      4.86000000     67.38000000
C51     42.94000000      4.71000000     68.28000000
C52     42.44000000      6.09000000     68.72000000
 C1     49.33000000      0.81000000     46.18000000
 C2     50.00000000      2.65000000     44.82000000
 C3     47.71000000      1.88000000     44.75000000
 N4     48.90000000      2.10000000     45.59000000
 C5     48.62000000      3.03000000     46.72000000
 C6     47.25000000      2.89000000     47.41000000
OS7     47.00000000      1.51000000     47.63000000
 P8     45.67000000      1.07000000     48.33000000
OM9     44.90000000      1.78000000     47.27000000
OM10     46.13000000     99.69000000     48.04000000
OS11     46.23000000      1.84000000     49.60000000
C12     47.12000000      1.22000000     50.54000000
C13     48.20000000      2.13000000     51.18000000
OS14     49.41000000      1.37000000     51.46000000
C15     50.36000000      1.18000000     50.50000000
O16     50.20000000      1.38000000     49.28000000
C17     51.51000000      0.35000000     51.06000000
C18     52.60000000      1.14000000     51.79000000
C19     52.84000000      1.06000000     53.32000000
C20     53.85000000      2.08000000     53.91000000
C21     54.70000000      1.78000000     55.16000000
C22     56.07000000      2.48000000     55.16000000
C23     57.21000000      1.69000000     55.81000000
C24     57.04000000      1.38000000     57.27000000
C25     57.85000000      0.63000000     58.05000000
C26     57.57000000      0.36000000     59.50000000
C27     58.67000000     99.79000000     60.40000000
C28     58.19000000     99.78000000     61.85000000
C29     59.08000000     99.03000000     62.84000000
C30     60.39000000     99.66000000     63.28000000
C31     60.58000000     99.33000000     64.76000000
C32     61.30000000      0.48000000     65.45000000
C33     61.10000000      0.43000000     66.96000000
C34     47.65000000      3.12000000     52.25000000
OS35     47.18000000      2.93000000     53.62000000
C36     46.64000000      4.08000000     54.16000000
O37     46.26000000      4.92000000     53.37000000
C38     46.11000000      4.06000000     55.60000000
C39     46.15000000      5.28000000     56.56000000
C40     47.25000000      5.24000000     57.63000000
C41     47.40000000      6.28000000     58.75000000
C42     48.56000000      5.85000000     59.67000000
C43     48.26000000      4.44000000     60.18000000
C44     49.27000000      3.59000000     60.96000000
C45     49.30000000      3.91000000     62.45000000
C46     49.72000000      2.68000000     63.25000000
C47     50.00000000      3.03000000     64.71000000
C48     48.92000000      3.99000000     65.22000000
C49     49.04000000      4.33000000     66.70000000
C50     48.07000000      5.47000000     66.97000000
C51     48.07000000      5.93000000     68.42000000
C52     46.94000000      6.94000000     68.67000000
 C1     54.28000000      1.77000000     44.80000000
 C2     53.55000000     99.49000000     45.16000000
 C3     55.75000000      0.14000000     45.77000000
 N4     54.36000000      0.59000000     45.67000000
 C5     53.85000000      0.88000000     47.04000000
 C6     54.68000000      1.86000000     47.87000000
OS7     54.77000000      3.17000000     47.32000000
 P8     56.21000000      3.80000000     47.46000000
OM9     56.82000000      3.18000000     46.26000000
OM10     55.91000000      5.22000000     47.40000000
OS11     56.84000000      3.35000000     48.84000000
C12     56.40000000      3.99000000     50.04000000
C13     55.43000000      3.11000000     50.85000000
OS14     54.46000000      3.91000000     51.61000000
C15     53.25000000      4.33000000     51.08000000
O16     52.98000000      4.19000000     49.88000000
C17     52.31000000      4.97000000     52.12000000
C18     51.15000000      4.14000000     52.72000000
C19     50.93000000      4.14000000     54.26000000
C20     50.05000000      2.99000000     54.81000000
C21     49.54000000      2.99000000     56.28000000
C22     48.56000000      1.84000000     56.63000000
C23     47.95000000      1.71000000     58.06000000
C24     46.51000000      2.15000000     58.33000000
C25     45.37000000      2.12000000     59.07000000
C26     44.96000000      1.39000000     60.33000000
C27     43.47000000      1.28000000     60.69000000
C28     42.97000000      2.70000000     60.89000000
C29     41.75000000      3.16000000     61.70000000
C30     41.90000000      3.45000000     63.20000000
C31     41.85000000      2.21000000     64.10000000
C32     41.42000000      2.64000000     65.50000000
C33     41.30000000      1.46000000     66.46000000
C34     56.27000000      1.90000000     51.41000000
OS35     55.61000000      0.62000000     51.70000000
C36     56.25000000     99.73000000     52.53000000
O37     57.47000000     99.79000000     52.68000000
C38     55.37000000     98.61000000     53.16000000
C39     55.49000000     98.62000000     54.71000000
C40     54.74000000     97.74000000     55.74000000
C41     54.89000000     98.22000000     57.20000000
C42     53.83000000     97.74000000     58.21000000
C43     53.90000000     98.25000000     59.67000000
C44     52.53000000     98.13000000     60.39000000
C45     52.41000000     98.24000000     61.93000000
C46     52.33000000     99.64000000     62.55000000
C47     51.77000000     99.69000000     63.98000000
C48     52.75000000     99.49000000     65.13000000
C49     52.06000000     99.54000000     66.50000000
C50     53.02000000     99.15000000     67.62000000
C51     52.32000000     98.94000000     68.96000000
C52     53.30000000     98.40000000     70.01000000
 C1     61.56000000      1.34000000     45.70000000
 C2     62.43000000      3.47000000     46.40000000
 C3     60.23000000      3.35000000     45.36000000
 N4     61.21000000      2.67000000     46.21000000
 C5     60.67000000      2.57000000     47.58000000
 C6     59.32000000      1.86000000     47.80000000
OS7     59.42000000      0.47000000     47.54000000
 P8     58.73000000     99.58000000     48.66000000
OM9     57.34000000     99.95000000     48.36000000
OM10     59.30000000     98.29000000     48.23000000
OS11     59.42000000      0.25000000     49.92000000
C12     60.74000000     99.77000000     50.23000000
C13     61.75000000      0.90000000     50.54000000
OS14     63.11000000      0.42000000     50.24000000
C15     63.73000000      0.12000000     49.03000000
O16     63.27000000      0.47000000     47.93000000
C17     64.85000000     99.05000000     49.15000000
C18     66.37000000     99.17000000     48.81000000
C19     67.35000000     98.24000000     49.58000000
C20     68.89000000     98.48000000     49.67000000
C21     69.60000000     97.56000000     50.71000000
C22     70.95000000     97.90000000     51.42000000
C23     70.93000000     97.48000000     52.93000000
C24     71.99000000     97.23000000     54.00000000
C25     71.81000000     96.92000000     55.33000000
C26     72.76000000     96.59000000     56.49000000
C27     72.22000000     96.70000000     57.94000000
C28     73.13000000     96.30000000     59.12000000
C29     72.64000000     96.82000000     60.50000000
C30     73.06000000     96.05000000     61.77000000
C31     74.56000000     95.93000000     62.06000000
C32     75.13000000     97.12000000     62.83000000
C33     75.68000000     96.73000000     64.20000000
C34     61.26000000      1.42000000     51.94000000
OS35     61.42000000      2.74000000     52.55000000
C36     60.39000000      3.18000000     53.36000000
O37     59.21000000      2.98000000     53.03000000
C38     60.78000000      4.35000000     54.28000000
C39     60.09000000      4.42000000     55.66000000
C40     60.51000000      5.63000000     56.53000000
C41     60.52000000      5.41000000     58.05000000
C42     61.87000000      5.85000000     58.67000000
C43     62.59000000      5.43000000     59.98000000
C44     62.08000000      5.90000000     61.35000000
C45     63.06000000      5.75000000     62.53000000
C46     63.41000000      4.30000000     62.87000000
C47     63.84000000      4.13000000     64.33000000
C48     62.73000000      4.64000000     65.27000000
C49     62.94000000      4.31000000     66.75000000
C50     61.79000000      4.95000000     67.54000000
C51     61.89000000      4.70000000     69.04000000
C52     60.80000000      5.47000000     69.79000000
 C1     66.56000000      0.48000000     45.62000000
 C2     68.48000000     99.92000000     44.37000000
 C3     67.97000000      2.25000000     44.84000000
 N4     67.96000000      0.87000000     45.35000000
 C5     68.82000000      0.77000000     46.56000000
 C6     68.69000000      1.83000000     47.68000000
OS7     67.30000000      2.03000000     47.87000000
 P8     66.86000000      2.93000000     49.07000000
OM9     67.68000000      4.05000000     48.57000000
OM10     65.46000000      2.86000000     48.65000000
OS11     67.40000000      1.82000000     50.08000000
C12     66.66000000      1.64000000     51.29000000
C13     66.91000000      0.45000000     52.29000000
OS14     65.95000000      0.49000000     53.37000000
C15     64.79000000     99.88000000     53.06000000
O16     64.72000000     99.20000000     52.06000000
C17     63.75000000     99.81000000     54.14000000
C18     63.58000000     98.33000000     54.38000000
C19     64.55000000     97.83000000     55.45000000
C20     64.63000000     96.30000000     55.46000000
C21     65.40000000     95.43000000     56.44000000
C22     64.95000000     95.48000000     57.89000000
C23     65.75000000     94.41000000     58.62000000
C24     65.38000000     94.20000000     60.05000000
C25     64.69000000     93.17000000     60.58000000
C26     64.40000000     92.98000000     62.04000000
C27     62.98000000     92.61000000     62.45000000
C28     62.57000000     92.71000000     63.92000000
C29     63.16000000     91.66000000     64.86000000
C30     64.54000000     92.10000000     65.35000000
C31     64.73000000     91.78000000     66.83000000
C32     66.17000000     92.08000000     67.22000000
C33     66.42000000     91.73000000     68.68000000
C34     68.36000000      0.06000000     52.73000000
OS35     69.74000000      0.31000000     53.19000000
C36     70.19000000      0.53000000     54.48000000
O37     69.50000000      1.06000000     55.33000000
C38     71.70000000      0.52000000     54.66000000
C39     72.06000000      0.72000000     56.14000000
C40     71.30000000     99.83000000     57.12000000
C41     71.25000000      0.19000000     58.60000000
C42     70.14000000     99.35000000     59.22000000
C43     70.03000000     99.33000000     60.74000000
C44     68.80000000     98.50000000     61.09000000