23400
Energy = 276313.28488130 au
 C1      2.16000000      0.46000000     45.41000000
 C2      3.44000000      2.29000000     44.58000000
 C3      1.01000000      2.36000000     44.47000000
 N4      2.19000000      1.93000000     45.24000000
 C5      2.23000000      2.61000000     46.56000000
 C6      0.91000000      2.64000000     47.35000000
OS7      0.52000000      1.30000000     47.52000000
 P8     99.17000000      0.90000000     48.21000000
OM9     98.47000000      1.43000000     47.01000000
OM10     99.67000000     99.52000000     48.24000000
OS11     99.50000000      1.90000000     49.40000000
C12      0.34000000      1.36000000     50.43000000
C13      1.42000000      2.23000000     51.09000000
OS14      2.42000000      1.19000000     51.40000000
C15      3.27000000      0.38000000     50.65000000
O16      3.43000000      0.45000000     49.42000000
C17      4.01000000     99.40000000     51.60000000
C18      5.51000000     99.09000000     51.41000000
C19      6.50000000     99.45000000     52.53000000
C20      6.83000000     98.68000000     53.82000000
C21      8.08000000     99.33000000     54.46000000
C22      9.06000000     99.89000000     55.60000000
C23      9.71000000      0.71000000     56.75000000
C24     11.00000000      0.25000000     57.41000000
C25     12.04000000     99.44000000     57.76000000
C26     13.25000000     99.69000000     58.61000000
C27     13.34000000     98.88000000     59.89000000
C28     13.66000000     99.87000000     61.00000000
C29     14.93000000      0.66000000     60.71000000
C30     15.16000000      1.72000000     61.78000000
C31     15.28000000      1.36000000     63.26000000
C32     14.05000000      1.14000000     64.15000000
C33     14.35000000      1.58000000     65.57000000
C34      0.92000000      3.36000000     52.15000000
OS35      0.37000000      4.29000000     53.24000000
C36     99.48000000      4.43000000     54.37000000
O37     98.89000000      3.47000000     54.82000000
C38     99.14000000      5.76000000     55.14000000
C39     99.21000000      6.07000000     56.69000000
C40     99.84000000      7.30000000     57.47000000
C41      1.22000000      7.15000000     58.19000000
C42      2.37000000      7.67000000     59.15000000
C43      2.85000000      7.92000000     60.63000000
C44      3.04000000      7.05000000     61.94000000
C45      3.91000000      5.85000000     62.54000000
C46      4.21000000      5.55000000     64.03000000
C47      3.05000000      5.38000000     65.05000000
C48      3.07000000      4.69000000     66.43000000
C49      1.73000000      4.60000000     67.15000000
C50      1.50000000      5.63000000     68.24000000
C51      2.05000000      5.13000000     69.56000000
C52      1.85000000      6.26000000     70.55000000
 C1      7.91000000      3.38000000     45.57000000
 C2      6.93000000      1.33000000     44.86000000
 C3      9.08000000      1.98000000     43.96000000
 N4      8.19000000      2.00000000     45.13000000
 C5      8.79000000      1.27000000     46.28000000
 C6     10.30000000      1.46000000     46.49000000
OS7     10.57000000      2.85000000     46.60000000
 P8     11.21000000      3.47000000     47.94000000
OM9     12.40000000      2.89000000     47.30000000
OM10     10.55000000      4.63000000     47.30000000
OS11     10.42000000      2.36000000     48.79000000
C12      9.40000000      2.60000000     49.75000000
C13      8.63000000      1.36000000     50.26000000
OS14      7.51000000      1.87000000     51.06000000
C15      6.36000000      2.41000000     50.54000000
O16      6.14000000      2.41000000     49.31000000
C17      5.61000000      3.23000000     51.62000000
C18      4.31000000      3.22000000     52.48000000
C19      4.07000000      2.14000000     53.58000000
C20      2.87000000      1.82000000     54.56000000
C21      1.36000000      1.38000000     54.46000000
C22      0.30000000      0.82000000     55.49000000
C23     99.21000000      1.13000000     56.55000000
C24     98.90000000      0.37000000     57.84000000
C25     97.75000000    100.00000000     58.45000000
C26     96.45000000     99.58000000     59.14000000
C27     95.97000000      0.03000000     60.50000000
C28     97.07000000     99.58000000     61.44000000
C29     96.75000000     99.83000000     62.89000000
C30     96.15000000     98.59000000     63.52000000
C31     96.41000000     98.74000000     65.01000000
C32     95.76000000     97.58000000     65.75000000
C33     95.87000000     97.79000000     67.25000000
C34      9.69000000      0.37000000     50.87000000
OS35      9.63000000     99.05000000     51.52000000
C36     10.48000000     98.95000000     52.61000000
O37     10.96000000     99.99000000     53.03000000
C38     10.52000000     97.66000000     53.49000000
C39     10.98000000     97.68000000     54.99000000
C40     10.31000000     97.09000000     56.31000000
C41      9.11000000     97.34000000     57.31000000
C42      9.45000000     97.83000000     58.74000000
C43      8.60000000     98.72000000     59.64000000
C44      9.33000000     99.86000000     60.36000000
C45     10.37000000     99.54000000     61.43000000
C46      9.75000000     99.10000000     62.74000000
C47     10.53000000     99.23000000     64.04000000
C48      9.73000000     98.39000000     65.04000000
C49      9.72000000     98.68000000     66.55000000
C50      9.08000000     97.51000000     67.30000000
C51      8.71000000     97.90000000     68.73000000
C52      9.81000000     97.69000000     69.75000000
 C1     13.92000000      2.99000000     44.78000000
 C2     13.63000000      0.81000000     43.99000000
 C3     15.86000000      1.80000000     43.96000000
 N4     14.58000000      1.67000000     44.67000000
 C5     14.79000000      1.02000000     45.99000000
 C6     15.94000000      1.60000000     46.82000000
OS7     15.57000000      2.96000000     46.96000000
 P8     16.39000000      3.88000000     47.86000000
OM9     17.41000000      3.90000000     46.77000000
OM10     15.45000000      5.00000000     47.89000000
OS11     16.27000000      2.78000000     49.01000000
C12     15.17000000      2.85000000     49.92000000
C13     15.05000000      1.81000000     51.05000000
OS14     14.09000000      2.39000000     51.97000000
C15     12.76000000      2.45000000     51.67000000
O16     12.34000000      1.93000000     50.64000000
C17     12.00000000      3.23000000     52.75000000
C18     10.54000000      2.85000000     52.93000000
C19      9.73000000      2.95000000     54.23000000
C20      8.27000000      2.46000000     53.99000000
C21      7.07000000      2.23000000     54.99000000
C22      6.33000000      1.65000000     56.24000000
C23      6.15000000      0.15000000     56.68000000
C24      5.96000000     98.69000000     57.13000000
C25      5.10000000     97.92000000     57.90000000
C26      4.07000000     97.18000000     58.78000000
C27      3.23000000     97.67000000     59.99000000
C28      1.76000000     98.06000000     59.78000000
C29      1.06000000     98.47000000     61.08000000
C30      1.84000000     97.98000000     62.29000000
C31      1.07000000     98.36000000     63.54000000
C32      1.08000000     97.15000000     64.45000000
C33      0.73000000     97.53000000     65.88000000
C34     16.40000000      1.55000000     51.77000000
OS35     16.60000000      0.19000000     52.20000000
C36     17.06000000     99.96000000     53.47000000
O37     17.37000000      0.83000000     54.29000000
C38     16.96000000     98.46000000     53.71000000
C39     17.20000000     97.82000000     55.09000000
C40     16.62000000     98.42000000     56.36000000
C41     17.31000000     97.63000000     57.48000000
C42     16.69000000     97.95000000     58.83000000
C43     17.39000000     97.29000000     60.02000000
C44     16.56000000     97.78000000     61.19000000
C45     17.00000000     97.64000000     62.63000000
C46     15.73000000     98.02000000     63.37000000
C47     15.87000000     97.94000000     64.87000000
C48     16.80000000     98.95000000     65.49000000
C49     16.41000000     99.19000000     66.94000000
C50     16.37000000     97.90000000     67.75000000
C51     15.58000000     98.15000000     69.03000000
C52     16.42000000     98.31000000     70.29000000
 C1     22.06000000      3.18000000     45.43000000
 C2     19.99000000      2.40000000     44.69000000
 C3     21.99000000      1.01000000     44.34000000
 N4     21.27000000      1.95000000     45.21000000
 C5     20.94000000      1.21000000     46.46000000
 C6     22.08000000      0.52000000     47.22000000
OS7     22.93000000      1.61000000     47.48000000
 P8     24.21000000      1.65000000     48.38000000
OM9     24.77000000      0.63000000     47.47000000
OM10     24.13000000      3.03000000     47.84000000
OS11     23.27000000      1.15000000     49.56000000
C12     22.33000000      2.08000000     50.08000000
C13     21.09000000      1.47000000     50.72000000
OS14     19.88000000      2.30000000     50.73000000
C15     19.30000000      3.05000000     49.75000000
O16     19.40000000      2.81000000     48.54000000
C17     18.36000000      4.09000000     50.38000000
C18     18.54000000      5.59000000     50.08000000
C19     18.15000000      6.49000000     51.27000000
C20     18.34000000      6.94000000     52.75000000
C21     18.52000000      7.39000000     54.22000000
C22     17.56000000      7.44000000     55.44000000
C23     16.79000000      8.68000000     55.93000000
C24     16.10000000      8.70000000     57.26000000
C25     15.27000000      9.51000000     57.93000000
C26     14.83000000      9.02000000     59.25000000
C27     13.66000000      9.61000000     59.97000000
C28     13.76000000     10.83000000     60.85000000
C29     14.10000000     10.44000000     62.29000000
C30     13.24000000      9.59000000     63.17000000
C31     13.66000000      9.71000000     64.64000000
C32     13.04000000      8.73000000     65.63000000
C33     13.47000000      8.92000000     67.09000000
C34     21.69000000      1.25000000     52.11000000
OS35     20.77000000      0.90000000     53.11000000
C36     21.31000000     99.89000000     53.77000000
O37     22.26000000     99.31000000     53.26000000
C38     20.16000000     99.32000000     54.53000000
C39     20.27000000     99.06000000     56.01000000
C40     20.89000000      0.25000000     56.69000000
C41     20.69000000     99.97000000     58.15000000
C42     19.26000000      0.41000000     58.33000000
C43     18.89000000      0.21000000     59.77000000
C44     20.12000000      0.27000000     60.62000000
C45     19.58000000     99.99000000     61.99000000
C46     20.78000000     99.90000000     62.88000000
C47     20.31000000     99.98000000     64.30000000
C48     20.22000000     98.72000000     65.14000000
C49     20.19000000     99.37000000     66.52000000
C50     20.01000000     98.55000000     67.78000000
C51     19.81000000     99.59000000     68.88000000
C52     19.79000000     98.97000000     70.27000000
 C1     28.17000000      3.33000000     44.98000000
 C2     26.28000000      2.17000000     44.10000000
 C3     28.51000000      1.15000000     43.96000000
 N4     27.59000000      1.99000000     44.73000000
 C5     27.25000000      1.28000000     45.98000000
 C6     28.41000000      0.81000000     46.85000000
OS7     29.02000000      2.01000000     47.25000000
 P8     30.25000000      1.90000000     48.19000000
OM9     31.01000000      1.30000000     47.04000000
OM10     30.29000000      3.37000000     48.27000000
OS11     29.42000000      0.93000000     49.20000000
C12     28.42000000      1.41000000     50.13000000
C13     27.59000000      0.59000000     51.18000000
OS14     26.77000000      1.48000000     51.95000000
C15     25.82000000      2.34000000     51.52000000
O16     25.79000000      2.89000000     50.41000000
C17     24.89000000      2.57000000     52.69000000
C18     24.65000000      4.04000000     52.99000000
C19     23.52000000      4.19000000     54.00000000
C20     23.08000000      5.67000000     54.03000000
C21     21.85000000      6.26000000     54.77000000
C22     21.64000000      7.59000000     55.50000000
C23     20.68000000      7.11000000     56.55000000
C24     20.49000000      7.72000000     57.86000000
C25     19.48000000      7.23000000     58.57000000
C26     19.23000000      7.63000000     59.95000000
C27     20.34000000      8.55000000     60.46000000
C28     20.48000000      9.11000000     61.90000000
C29     20.31000000      9.86000000     63.24000000
C30     19.62000000      9.88000000     64.64000000
C31     18.18000000     10.33000000     64.98000000
C32     17.90000000     10.34000000     66.49000000
C33     16.90000000      9.29000000     66.98000000
C34     28.39000000     99.74000000     52.22000000
OS35     27.57000000     99.12000000     53.28000000
C36     28.12000000     98.31000000     54.25000000
O37     29.27000000     97.91000000     54.12000000
C38     27.11000000     97.75000000     55.28000000
C39     27.30000000     96.82000000     56.54000000
C40     25.98000000     96.60000000     57.37000000
C41     25.37000000     96.35000000     58.81000000
C42     24.02000000     97.07000000     59.24000000
C43     23.57000000     98.03000000     60.42000000
C44     23.64000000     99.55000000     60.87000000
C45     24.68000000      0.58000000     61.46000000
C46     25.55000000      0.99000000     62.72000000
C47     26.80000000      1.06000000     63.67000000
C48     27.34000000    100.00000000     64.67000000
C49     26.94000000      0.07000000     66.16000000
C50     26.97000000     98.71000000     66.90000000
C51     25.99000000     98.67000000     68.09000000
C52     26.65000000     98.58000000     69.46000000
 C1     34.25000000      3.36000000     45.08000000
 C2     32.76000000      1.69000000     44.36000000
 C3     35.15000000      1.46000000     43.88000000
 N4     34.12000000      1.91000000     44.82000000
 C5     34.21000000      1.08000000     46.05000000
 C6     35.56000000      1.08000000     46.75000000
OS7     35.67000000      2.40000000     47.24000000
 P8     36.69000000      2.75000000     48.36000000
OM9     37.68000000      2.55000000     47.26000000
OM10     36.01000000      4.05000000     48.46000000
OS11     36.09000000      1.50000000     49.20000000
C12     34.88000000      1.61000000     49.96000000
C13     34.32000000      0.49000000     50.89000000
OS14     33.30000000      1.10000000     51.70000000
C15     32.15000000      1.33000000     51.07000000
O16     32.01000000      0.84000000     49.95000000
C17     31.13000000      2.12000000     51.89000000
C18     30.88000000      3.58000000     51.51000000
C19     29.47000000      3.93000000     51.99000000
C20     29.25000000      3.32000000     53.37000000
C21     27.95000000      3.68000000     54.09000000
C22     27.82000000      2.86000000     55.38000000
C23     26.51000000      3.13000000     56.13000000
C24     26.62000000      2.85000000     57.60000000
C25     25.84000000      3.34000000     58.57000000
C26     25.24000000      3.65000000     59.92000000
C27     25.06000000      5.16000000     60.18000000
C28     24.45000000      5.36000000     61.54000000
C29     24.34000000      3.93000000     62.09000000
C30     23.29000000      3.38000000     63.06000000
C31     23.32000000      3.36000000     64.57000000
C32     21.84000000      3.10000000     64.86000000
C33     21.56000000      2.69000000     66.28000000
C34     35.41000000     99.85000000     51.78000000
OS35     34.98000000     99.05000000     52.90000000
C36     35.94000000     98.89000000     53.86000000
O37     37.08000000     99.29000000     53.68000000
C38     35.52000000     97.94000000     54.96000000
C39     35.58000000     98.56000000     56.36000000
C40     34.37000000     99.43000000     56.62000000
C41     34.08000000     99.48000000     58.11000000
C42     32.57000000     99.46000000     58.31000000
C43     32.16000000     98.80000000     59.62000000
C44     32.93000000     99.41000000     60.77000000
C45     32.23000000     99.03000000     62.07000000
C46     32.88000000     99.87000000     63.16000000
C47     32.28000000     99.62000000     64.54000000
C48     33.27000000     98.78000000     65.32000000
C49     33.59000000     99.43000000     66.66000000
C50     32.46000000     99.21000000     67.66000000
C51     32.83000000     99.91000000     68.96000000
C52     34.15000000     99.35000000     69.48000000
 C1     40.94000000      3.43000000     45.52000000
 C2     39.46000000      1.75000000     44.84000000
 C3     41.81000000      1.59000000     44.18000000
 N4     40.85000000      1.99000000     45.22000000
 C5     41.06000000      1.17000000     46.44000000
 C6     42.49000000      1.09000000     46.99000000
OS7     42.87000000      2.43000000     47.25000000
 P8     43.76000000      2.92000000     48.48000000
OM9     44.73000000      2.46000000     47.46000000
OM10     42.95000000      4.12000000     48.21000000
OS11     43.01000000      1.82000000     49.35000000
C12     41.98000000      2.35000000     50.17000000
C13     41.01000000      1.31000000     50.77000000
OS14     40.01000000      2.03000000     51.49000000
C15     38.80000000      1.87000000     50.96000000
O16     38.73000000      1.49000000     49.79000000
C17     37.70000000      2.33000000     51.90000000
C18     37.20000000      3.77000000     51.85000000
C19     35.71000000      3.74000000     52.23000000
C20     35.22000000      2.94000000     53.44000000
C21     33.75000000      3.15000000     53.81000000
C22     33.22000000      2.25000000     54.93000000
C23     31.86000000      2.74000000     55.44000000
C24     31.13000000      2.05000000     56.56000000
C25     30.84000000      2.55000000     57.78000000
C26     30.03000000      1.94000000     58.90000000
C27     30.58000000      1.78000000     60.33000000
C28     31.07000000      3.00000000     61.10000000
C29     31.29000000      2.89000000     62.61000000
C30     30.13000000      2.30000000     63.41000000
C31     30.10000000      3.10000000     64.71000000
C32     29.36000000      2.56000000     65.92000000
C33     30.37000000      1.94000000     66.88000000
C34     41.74000000      0.26000000     51.63000000
OS35     40.83000000     99.60000000     52.54000000
C36     40.98000000     99.99000000     53.84000000
O37     42.06000000      0.42000000     54.22000000
C38     39.80000000     99.72000000     54.77000000
C39     39.83000000     98.56000000     55.76000000
C40     39.39000000     98.92000000     57.16000000
C41     39.46000000     97.70000000     58.07000000
C42     38.33000000     97.84000000     59.08000000
C43     38.70000000     97.23000000     60.43000000
C44     39.83000000     98.04000000     61.05000000
C45     39.85000000     97.98000000     62.58000000
C46     40.52000000     99.26000000     63.06000000
C47     40.41000000     99.64000000     64.53000000
C48     41.12000000     98.67000000     65.45000000
C49     40.75000000     98.97000000     66.89000000
C50     39.71000000     97.96000000     67.37000000
C51     39.32000000     98.23000000     68.82000000
C52     40.53000000     98.08000000     69.74000000
 C1     47.93000000      3.46000000     45.51000000
 C2     46.44000000      1.76000000     44.79000000
 C3     48.87000000      1.29000000     45.06000000
 N4     47.68000000      2.01000000     45.53000000
 C5     47.40000000      1.53000000     46.90000000
 C6     48.35000000      1.85000000     48.05000000
OS7     48.39000000      3.25000000     48.28000000
 P8     49.76000000      3.76000000     48.83000000
OM9     50.49000000      3.47000000     47.56000000
OM10     49.40000000      5.15000000     49.10000000
OS11     49.84000000      2.82000000     50.09000000
C12     49.04000000      3.29000000     51.18000000
C13     48.09000000      2.20000000     51.68000000
OS14     46.93000000      2.66000000     52.40000000
C15     45.76000000      2.08000000     51.99000000
O16     45.51000000      1.90000000     50.80000000
C17     44.77000000      2.01000000     53.14000000
C18     44.28000000      3.37000000     53.60000000
C19     42.83000000      3.69000000     53.23000000
C20     41.47000000      3.17000000     53.72000000
C21     40.59000000      3.31000000     54.98000000
C22     39.10000000      2.87000000     54.99000000
C23     37.78000000      3.64000000     55.28000000
C24     37.33000000      4.46000000     56.46000000
C25     36.93000000      5.17000000     57.55000000
C26     36.65000000      4.80000000     58.99000000
C27     37.54000000      5.26000000     60.15000000
C28     36.93000000      4.55000000     61.37000000
C29     37.51000000      4.80000000     62.76000000
C30     36.90000000      3.83000000     63.79000000
C31     35.45000000      3.47000000     63.42000000
C32     34.65000000      2.63000000     64.42000000
C33     34.66000000      2.98000000     65.91000000
C34     48.95000000      1.20000000     52.46000000
OS35     48.28000000     99.96000000     52.73000000
C36     48.65000000     99.43000000     53.92000000
O37     49.65000000     99.80000000     54.53000000
C38     47.91000000     98.15000000     54.19000000
C39     48.17000000     97.82000000     55.65000000
C40     47.37000000     98.84000000     56.44000000
C41     47.78000000     98.77000000     57.89000000
C42     46.78000000     99.59000000     58.68000000
C43     46.82000000     99.18000000     60.14000000
C44     48.14000000     99.51000000     60.82000000
C45     47.86000000     99.94000000     62.25000000
C46     47.11000000     98.92000000     63.12000000
C47     46.92000000     99.49000000     64.53000000
C48     46.08000000     98.85000000     65.64000000
C49     46.40000000     99.62000000     66.93000000
C50     45.52000000     99.29000000     68.13000000
C51     46.25000000     99.58000000     69.45000000
C52     47.28000000     98.50000000     69.76000000
 C1     54.20000000      0.43000000     45.50000000
 C2     55.48000000      2.24000000     44.69000000
 C3     53.04000000      2.47000000     44.87000000
 N4     54.27000000      1.91000000     45.43000000
 C5     54.43000000      2.50000000     46.78000000
 C6     53.36000000      2.21000000     47.84000000
OS7     53.32000000      0.82000000     48.13000000
 P8     51.98000000      0.40000000     48.84000000
OM9     51.13000000      0.69000000     47.66000000
OM10     52.24000000     99.02000000     49.16000000
OS11     52.27000000      1.35000000     50.07000000
C12     53.22000000      0.73000000     50.96000000
C13     54.25000000      1.62000000     51.67000000
OS14     55.13000000      0.85000000     52.54000000
C15     56.10000000      0.07000000     51.99000000
O16     56.41000000      0.19000000     50.80000000
C17     56.90000000     99.33000000     53.07000000
C18     58.15000000     98.61000000     52.51000000
C19     59.19000000     97.92000000     53.42000000
C20     59.91000000     98.68000000     54.55000000
C21     61.44000000     98.96000000     54.45000000
C22     62.12000000     99.43000000     55.77000000
C23     63.43000000      0.26000000     55.63000000
C24     64.25000000      0.42000000     56.90000000
C25     65.59000000      0.53000000     57.16000000
C26     66.37000000      0.58000000     58.47000000
C27     67.14000000      0.82000000     59.78000000
C28     67.52000000     99.49000000     60.45000000
C29     67.58000000     99.40000000     61.97000000
C30     68.35000000      0.58000000     62.51000000
C31     68.05000000      0.66000000     64.00000000
C32     68.39000000      2.08000000     64.44000000
C33     68.11000000      2.30000000     65.91000000
C34     53.36000000      2.60000000     52.44000000
OS35     54.04000000      3.60000000     53.17000000
C36     53.15000000      4.48000000     53.64000000
O37     52.00000000      4.46000000     53.22000000
C38     53.87000000      5.61000000     54.33000000
C39     54.04000000      5.43000000     55.83000000
C40     55.18000000      6.35000000     56.24000000
C41     55.37000000      6.45000000     57.74000000
C42     56.62000000      5.66000000     58.13000000
C43     57.21000000      5.43000000     59.54000000
C44     57.03000000      4.81000000     60.95000000
C45     57.21000000      3.37000000     61.51000000
C46     57.96000000      3.28000000     62.86000000
C47     57.48000000      3.14000000     64.32000000
C48     57.29000000      4.41000000     65.17000000
C49     56.90000000      4.10000000     66.63000000
C50     55.86000000      5.01000000     67.33000000
C51     56.02000000      6.51000000     67.55000000
C52     54.77000000      7.02000000     68.28000000
 C1     60.95000000      0.33000000     45.32000000
 C2     62.34000000      2.09000000     44.55000000
 C3     59.95000000      2.29000000     44.31000000
 N4     61.05000000      1.80000000     45.15000000
 C5     61.04000000      2.46000000     46.48000000
 C6     59.68000000      2.61000000     47.18000000
OS7     59.10000000      1.32000000     47.12000000
 P8     57.86000000      0.78000000     47.95000000
OM9     57.20000000      1.73000000     47.04000000
OM10     58.31000000     99.49000000     47.42000000
OS11     58.61000000      1.41000000     49.15000000
C12     59.33000000      0.48000000     49.94000000
C13     59.99000000      1.26000000     51.08000000
OS14     61.24000000      0.50000000     51.52000000
C15     62.41000000      0.16000000     50.78000000
O16     62.53000000      0.59000000     49.62000000
C17     63.62000000     99.33000000     51.41000000
C18     64.91000000     98.88000000     50.57000000
C19     66.36000000     98.27000000     50.92000000
C20     67.86000000     98.82000000     51.12000000
C21     68.97000000     99.16000000     52.25000000
C22     69.33000000     99.97000000     53.59000000
C23     69.32000000     99.37000000     55.06000000
C24     69.67000000     99.74000000     56.53000000
C25     70.03000000     98.87000000     57.54000000
C26     70.39000000     98.86000000     59.05000000
C27     70.58000000     97.57000000     59.96000000
C28     70.83000000     97.68000000     61.52000000
C29     71.78000000     97.04000000     62.62000000
C30     73.29000000     97.03000000     63.11000000
C31     74.14000000     98.24000000     63.63000000
C32     74.84000000     98.33000000     65.00000000
C33     75.12000000     99.78000000     65.47000000
C34     58.76000000      2.12000000     51.72000000
OS35     58.66000000      3.22000000     52.76000000
C36     57.73000000      4.01000000     53.49000000
O37     56.68000000      4.29000000     52.94000000
C38     58.14000000      4.81000000     54.82000000
C39     59.00000000      5.62000000     55.90000000
C40     59.83000000      6.61000000     56.86000000
C41     60.68000000      7.10000000     58.13000000
C42     62.18000000      6.86000000     58.57000000
C43     62.66000000      7.16000000     60.03000000
C44     63.39000000      6.02000000     60.83000000
C45     63.35000000      5.93000000     62.38000000
C46     63.25000000      4.47000000     62.91000000
C47     63.51000000      4.16000000     64.40000000
C48     62.40000000      4.34000000     65.42000000
C49     62.93000000      4.28000000     66.86000000
C50     63.08000000      5.70000000     67.45000000
C51     63.06000000      5.68000000     68.99000000
C52     62.74000000      7.04000000     69.60000000
 C1     67.55000000      3.39000000     45.51000000
 C2     65.96000000      1.97000000     44.47000000
 C3     68.30000000      1.33000000     44.51000000
 N4     67.20000000      1.98000000     45.23000000
 C5     66.91000000      1.22000000     46.48000000
 C6     68.05000000      0.96000000     47.46000000
OS7     68.45000000      2.25000000     47.86000000
 P8     69.51000000      2.49000000     49.00000000
OM9     70.41000000      1.90000000     47.96000000
OM10     68.99000000      3.87000000     48.82000000
OS11     68.56000000      1.55000000     49.93000000
C12     67.60000000      2.17000000     50.84000000
C13     66.32000000      1.67000000     51.64000000
OS14     65.38000000      2.75000000     51.56000000
C15     64.71000000      3.08000000     50.42000000
O16     65.05000000      2.93000000     49.24000000
C17     63.72000000      4.11000000     50.88000000
C18     62.27000000      3.66000000     50.97000000
C19     61.48000000      3.88000000     52.29000000
C20     61.60000000      2.90000000     53.51000000
C21     60.56000000      2.18000000     54.48000000
C22     59.36000000      1.91000000     55.50000000
C23     58.17000000      1.64000000     56.52000000
C24     56.89000000      2.38000000     57.00000000
C25     56.17000000      2.36000000     58.18000000
C26     54.85000000      2.99000000     58.73000000
C27     53.98000000      3.99000000     59.60000000
C28     53.52000000      4.14000000     61.09000000
C29     54.27000000      4.80000000     62.28000000
C30     53.99000000      4.88000000     63.79000000
C31     54.19000000      3.50000000     64.41000000
C32     53.65000000      3.15000000     65.80000000
C33     54.07000000      1.73000000     66.17000000
C34     66.28000000      1.00000000     53.10000000
OS35     66.13000000     99.72000000     53.89000000
C36     66.38000000     98.36000000     54.25000000
O37     67.11000000     97.55000000     53.69000000
C38     65.93000000     97.88000000     55.61000000
C39     66.81000000     96.88000000     56.35000000
C40     66.85000000     97.28000000     57.83000000
C41     65.69000000     97.21000000     58.85000000
C42     64.26000000     97.79000000     58.89000000
C43     63.57000000     97.65000000     60.26000000
C44     64.20000000     98.69000000     61.18000000