23400
Energy = 522411.33932621 au
 C1      1.27000000      3.36000000     45.23000000
 C2      0.81000000      1.17000000     44.46000000
 C3      3.12000000      1.94000000     44.60000000
 N4      1.78000000      1.97000000     45.19000000
 C5      1.82000000      1.39000000     46.56000000
 C6      2.88000000      1.96000000     47.51000000
OS7      2.62000000      3.36000000     47.68000000
 P8      3.62000000      4.24000000     48.55000000
OM9      4.64000000      3.74000000     47.60000000
OM10      2.89000000      5.46000000     48.22000000
OS11      3.17000000      3.31000000     49.74000000
C12      1.89000000      3.46000000     50.37000000
C13      1.31000000      2.08000000     50.68000000
OS14      0.10000000      2.02000000     51.46000000
C15     99.44000000      0.88000000     51.16000000
O16     99.52000000      0.41000000     50.01000000
C17     98.38000000      0.62000000     52.20000000
C18     97.12000000      1.28000000     51.67000000
C19     96.32000000      2.09000000     52.70000000
C20     95.68000000      1.36000000     53.88000000
C21     94.55000000      2.04000000     54.66000000
C22     93.32000000      1.14000000     54.87000000
C23     92.30000000      1.57000000     55.93000000
C24     91.16000000      0.69000000     56.34000000
C25     90.57000000      0.81000000     57.55000000
C26     89.44000000    100.00000000     58.09000000
C27     89.54000000     99.38000000     59.50000000
C28     89.42000000      0.33000000     60.69000000
C29     89.09000000     99.55000000     61.96000000
C30     90.14000000     98.70000000     62.63000000
C31     90.17000000     99.03000000     64.12000000
C32     91.24000000     98.28000000     64.91000000
C33     90.85000000     98.20000000     66.39000000
C34      2.49000000      1.24000000     51.18000000
OS35      2.15000000      0.52000000     52.33000000
C36      2.85000000     99.76000000     53.15000000
O37      4.06000000     99.51000000     53.21000000
C38      1.65000000     99.28000000     53.90000000
C39      1.76000000     99.35000000     55.38000000
C40      0.88000000      0.35000000     56.13000000
C41      1.20000000      0.42000000     57.63000000
C42      0.35000000      1.12000000     58.69000000
C43      0.12000000      0.29000000     59.98000000
C44     99.49000000      1.06000000     61.16000000
C45     99.31000000      0.27000000     62.48000000
C46     99.00000000      1.17000000     63.71000000
C47     99.04000000      0.51000000     65.12000000
C48     99.80000000      1.10000000     66.34000000
C49      0.08000000      0.05000000     67.45000000
C50      1.36000000      0.10000000     68.30000000
C51      1.65000000     98.73000000     68.93000000
C52      2.91000000     98.61000000     69.80000000
 C1      7.17000000      2.57000000     45.19000000
 C2      8.08000000      0.48000000     44.56000000
 C3      9.26000000      2.53000000     43.96000000
 N4      8.44000000      1.84000000     44.96000000
 C5      9.22000000      1.68000000     46.21000000
 C6      9.84000000      2.95000000     46.82000000
OS7      8.75000000      3.81000000     47.11000000
 P8      8.56000000      4.39000000     48.59000000
OM9      9.70000000      5.18000000     48.06000000
OM10      7.21000000      4.63000000     48.06000000
OS11      8.78000000      2.85000000     49.08000000
C12      7.79000000      2.05000000     49.76000000
C13      8.12000000      0.62000000     50.31000000
OS14      6.85000000      0.18000000     50.78000000
C15      6.36000000     99.16000000     50.04000000
O16      6.94000000     98.80000000     49.01000000
C17      4.87000000     99.08000000     50.32000000
C18      4.03000000     97.88000000     49.85000000
C19      2.77000000     97.59000000     50.73000000
C20      2.50000000     96.61000000     51.92000000
C21      3.29000000     96.38000000     53.26000000
C22      2.92000000     95.82000000     54.67000000
C23      2.48000000     94.39000000     55.09000000
C24      2.33000000     94.08000000     56.56000000
C25      1.35000000     93.50000000     57.29000000
C26      1.38000000     93.42000000     58.79000000
C27      0.70000000     92.29000000     59.55000000
C28      1.22000000     92.41000000     60.99000000
C29      0.46000000     91.58000000     62.01000000
C30      1.28000000     91.17000000     63.22000000
C31      0.48000000     91.14000000     64.52000000
C32      1.08000000     90.11000000     65.47000000
C33      1.28000000     90.64000000     66.89000000
C34      9.35000000      0.31000000     51.23000000
OS35      9.33000000     99.84000000     52.61000000
C36     10.27000000      0.24000000     53.54000000
O37     10.92000000      1.26000000     53.41000000
C38     10.32000000     99.49000000     54.88000000
C39     10.61000000     98.02000000     55.19000000
C40     10.71000000     97.77000000     56.69000000
C41     11.87000000     98.21000000     57.60000000
C42     11.39000000     97.59000000     58.92000000
C43     11.92000000     97.79000000     60.33000000
C44     11.72000000     99.12000000     61.02000000
C45     11.72000000     98.88000000     62.52000000
C46     11.64000000      0.26000000     63.13000000
C47     10.95000000      0.26000000     64.47000000
C48     11.69000000     99.55000000     65.56000000
C49     11.02000000     99.90000000     66.86000000
C50     11.75000000     98.97000000     67.79000000
C51     11.13000000     98.98000000     69.16000000
C52     12.32000000     98.93000000     70.10000000
 C1     14.62000000      3.40000000     45.22000000
 C2     13.74000000      1.29000000     44.56000000
 C3     16.11000000      1.74000000     44.29000000
 N4     14.91000000      1.95000000     45.10000000
 C5     15.13000000      1.34000000     46.44000000
 C6     16.38000000      1.79000000     47.20000000
OS7     16.16000000      3.15000000     47.52000000
 P8     17.06000000      3.82000000     48.65000000
OM9     18.14000000      3.64000000     47.63000000
OM10     16.17000000      4.97000000     48.51000000
OS11     16.53000000      2.62000000     49.58000000
C12     15.29000000      2.73000000     50.28000000
C13     14.79000000      1.45000000     50.99000000
OS14     13.52000000      1.86000000     51.57000000
C15     12.43000000      1.86000000     50.75000000
O16     12.38000000      1.16000000     49.72000000
C17     11.58000000      3.12000000     50.95000000
C18     10.21000000      3.44000000     51.61000000
C19      8.83000000      3.77000000     52.28000000
C20      8.12000000      3.00000000     53.41000000
C21      6.99000000      3.64000000     54.29000000
C22      6.65000000      4.68000000     55.41000000
C23      5.25000000      4.91000000     56.12000000
C24      4.51000000      4.18000000     57.26000000
C25      3.52000000      3.79000000     58.12000000
C26      3.67000000      2.73000000     59.21000000
C27      2.79000000      2.78000000     60.46000000
C28      3.60000000      2.85000000     61.75000000
C29      2.81000000      2.70000000     63.05000000
C30      2.30000000      1.27000000     63.08000000
C31      2.30000000      0.45000000     64.37000000
C32      2.01000000     98.95000000     64.20000000
C33      2.37000000     98.20000000     65.47000000
C34     15.88000000      0.93000000     51.96000000
OS35     16.03000000     99.56000000     52.43000000
C36     16.44000000     99.50000000     53.74000000
O37     16.70000000      0.54000000     54.33000000
C38     16.51000000     98.09000000     54.36000000
C39     16.86000000     98.01000000     55.85000000
C40     15.78000000     97.28000000     56.63000000
C41     16.17000000     97.16000000     58.10000000
C42     15.31000000     98.06000000     58.97000000
C43     15.69000000     97.88000000     60.43000000
C44     15.22000000     99.11000000     61.19000000
C45     15.23000000     98.90000000     62.70000000
C46     15.06000000      0.29000000     63.28000000
C47     14.79000000      0.42000000     64.76000000
C48     15.83000000     99.63000000     65.51000000
C49     15.36000000     99.46000000     66.94000000
C50     15.67000000     98.01000000     67.28000000
C51     15.19000000     97.61000000     68.66000000
C52     16.06000000     98.23000000     69.76000000
 C1     21.59000000      3.51000000     45.44000000
 C2     20.16000000      1.77000000     44.68000000
 C3     22.58000000      1.51000000     44.46000000
 N4     21.47000000      2.06000000     45.26000000
 C5     21.44000000      1.39000000     46.58000000
 C6     22.75000000      1.42000000     47.38000000
OS7     23.00000000      2.76000000     47.79000000
 P8     24.20000000      3.07000000     48.79000000
OM9     25.03000000      2.63000000     47.65000000
OM10     23.64000000      4.41000000     48.93000000
OS11     23.72000000      1.89000000     49.73000000
C12     22.66000000      2.29000000     50.58000000
C13     21.69000000      1.21000000     51.07000000
OS14     20.58000000      1.86000000     51.79000000
C15     19.47000000      2.35000000     51.16000000
O16     19.21000000      2.04000000     50.00000000
C17     18.46000000      2.94000000     52.17000000
C18     17.97000000      4.39000000     52.02000000
C19     16.58000000      4.67000000     52.60000000
C20     16.27000000      4.07000000     53.97000000
C21     14.88000000      4.53000000     54.40000000
C22     14.69000000      4.34000000     55.90000000
C23     13.64000000      5.27000000     56.50000000
C24     12.95000000      4.62000000     57.66000000
C25     11.95000000      4.95000000     58.50000000
C26     11.37000000      4.03000000     59.54000000
C27     11.37000000      4.48000000     60.97000000
C28     10.95000000      3.38000000     61.94000000
C29     10.48000000      4.18000000     63.15000000
C30     10.18000000      3.47000000     64.45000000
C31      8.77000000      2.94000000     64.64000000
C32      8.66000000      2.34000000     66.04000000
C33      9.13000000      3.29000000     67.14000000
C34     22.61000000      0.22000000     51.83000000
OS35     22.10000000     98.93000000     52.24000000
C36     22.75000000     98.36000000     53.30000000
O37     23.95000000     98.38000000     53.16000000
C38     21.95000000     97.23000000     54.02000000
C39     21.65000000     96.87000000     55.49000000
C40     20.30000000     97.15000000     56.22000000
C41     20.21000000     96.92000000     57.75000000
C42     19.71000000     98.15000000     58.54000000
C43     19.62000000     97.97000000     60.06000000
C44     19.49000000     99.31000000     60.81000000
C45     19.55000000     99.12000000     62.33000000
C46     19.45000000      0.43000000     63.10000000
C47     19.46000000      0.21000000     64.62000000
C48     20.84000000     99.96000000     65.20000000
C49     20.72000000     99.68000000     66.71000000
C50     20.33000000     98.23000000     66.98000000
C51     19.96000000     98.01000000     68.46000000
C52     21.16000000     98.14000000     69.40000000
 C1     29.44000000      2.84000000     45.50000000
 C2     27.28000000      3.29000000     44.57000000
 C3     28.26000000      1.03000000     44.35000000
 N4     28.14000000      2.26000000     45.14000000
 C5     27.45000000      1.95000000     46.40000000
 C6     27.98000000      0.84000000     47.29000000
OS7     29.14000000      1.25000000     47.98000000
 P8     29.38000000      0.22000000     49.15000000
OM9     29.61000000     99.07000000     48.26000000
OM10     30.38000000      0.89000000     49.96000000
OS11     27.96000000      0.37000000     49.82000000
C12     28.01000000      1.49000000     50.70000000
C13     26.80000000      1.76000000     51.60000000
OS14     27.05000000      2.91000000     52.43000000
C15     26.94000000      4.06000000     51.75000000
O16     26.56000000      4.08000000     50.58000000
C17     26.80000000      5.23000000     52.67000000
C18     25.62000000      5.87000000     51.98000000
C19     24.91000000      6.88000000     52.86000000
C20     24.32000000      6.16000000     54.07000000
C21     23.16000000      6.85000000     54.86000000
C22     22.01000000      7.51000000     55.66000000
C23     21.78000000      8.55000000     56.81000000
C24     21.82000000      9.96000000     57.41000000
C25     22.57000000     10.36000000     58.47000000
C26     22.97000000     11.48000000     59.42000000
C27     24.23000000     12.00000000     60.20000000
C28     24.63000000     11.73000000     61.69000000
C29     24.10000000     12.28000000     63.06000000
C30     24.08000000     13.69000000     63.76000000
C31     23.29000000     14.14000000     65.03000000
C32     23.75000000     13.82000000     66.47000000
C33     22.61000000     13.55000000     67.46000000
C34     26.47000000      0.43000000     52.29000000
OS35     26.02000000      0.42000000     53.66000000
C36     26.45000000     99.27000000     54.26000000
O37     27.15000000     98.49000000     53.65000000
C38     26.00000000     98.99000000     55.68000000
C39     26.73000000     99.66000000     56.83000000
C40     26.07000000      1.01000000     57.06000000
C41     26.01000000      1.46000000     58.51000000
C42     24.79000000      2.37000000     58.67000000
C43     24.13000000      1.94000000     59.96000000
C44     25.24000000      2.17000000     60.95000000
C45     24.73000000      1.99000000     62.35000000
C46     25.67000000      2.89000000     63.12000000
C47     25.14000000      3.02000000     64.53000000
C48     25.07000000      1.64000000     65.15000000
C49     25.06000000      1.87000000     66.65000000
C50     24.11000000      0.88000000     67.29000000
C51     23.85000000      1.27000000     68.73000000
C52     24.39000000      0.17000000     69.64000000
 C1     34.10000000      0.76000000     45.02000000
 C2     36.01000000      1.53000000     43.90000000
 C3     34.08000000      3.00000000     44.22000000
 N4     34.94000000      1.96000000     44.79000000
 C5     35.60000000      2.48000000     46.03000000
 C6     34.73000000      2.99000000     47.18000000
OS7     34.02000000      1.85000000     47.58000000
 P8     32.50000000      1.86000000     47.98000000
OM9     32.12000000      2.58000000     46.71000000
OM10     32.67000000      0.41000000     47.85000000
OS11     32.95000000      2.91000000     49.07000000
C12     32.66000000      2.52000000     50.40000000
C13     33.83000000      2.57000000     51.36000000
OS14     34.26000000      1.13000000     51.54000000
C15     34.97000000      0.02000000     51.02000000
O16     35.74000000      0.09000000     50.05000000
C17     34.87000000     98.72000000     51.90000000
C18     36.14000000     98.22000000     52.67000000
C19     36.64000000     97.21000000     53.76000000
C20     38.13000000     97.07000000     54.29000000
C21     39.45000000     96.33000000     53.87000000
C22     40.55000000     95.86000000     54.86000000
C23     40.82000000     94.48000000     55.46000000
C24     41.34000000     94.70000000     56.84000000
C25     41.80000000     93.88000000     57.76000000
C26     42.18000000     94.49000000     59.05000000
C27     42.82000000     93.51000000     59.99000000
C28     42.96000000     94.36000000     61.21000000
C29     44.09000000     93.92000000     62.08000000
C30     44.37000000     95.21000000     62.79000000
C31     44.95000000     94.77000000     64.09000000
C32     43.99000000     95.22000000     65.14000000
C33     43.96000000     96.72000000     64.94000000
C34     33.35000000      3.69000000     52.42000000
OS35     33.90000000      4.50000000     53.56000000
C36     33.18000000      5.40000000     54.38000000
O37     31.96000000      5.38000000     54.24000000
C38     33.76000000      6.42000000     55.48000000
C39     35.01000000      6.93000000     56.33000000
C40     35.86000000      6.68000000     57.65000000
C41     36.46000000      5.49000000     58.54000000
C42     37.40000000      4.22000000     58.59000000
C43     37.75000000      3.57000000     59.95000000
C44     36.73000000      2.68000000     60.69000000
C45     37.20000000      2.45000000     62.14000000
C46     36.28000000      1.70000000     63.12000000
C47     36.69000000      1.54000000     64.62000000
C48     36.82000000      2.76000000     65.53000000
C49     37.13000000      2.63000000     67.02000000
C50     37.00000000      4.03000000     67.63000000
C51     37.79000000      4.22000000     68.93000000
C52     37.46000000      5.56000000     69.60000000
 C1     41.10000000      3.13000000     45.11000000
 C2     39.68000000      1.35000000     44.71000000
 C3     42.04000000      1.20000000     44.06000000
 N4     41.06000000      1.68000000     45.03000000
 C5     41.35000000      1.13000000     46.37000000
 C6     42.78000000      1.40000000     46.88000000
OS7     42.87000000      2.79000000     47.20000000
 P8     43.73000000      3.31000000     48.46000000
OM9     44.80000000      2.98000000     47.48000000
OM10     42.91000000      4.51000000     48.26000000
OS11     43.03000000      2.13000000     49.24000000
C12     41.81000000      2.47000000     49.86000000
C13     41.23000000      1.32000000     50.69000000
OS14     40.25000000      2.01000000     51.51000000
C15     39.05000000      2.40000000     50.96000000
O16     38.74000000      2.09000000     49.80000000
C17     38.26000000      3.14000000     52.02000000
C18     36.87000000      2.64000000     52.45000000
C19     36.62000000      1.48000000     53.46000000
C20     35.59000000      1.01000000     54.54000000
C21     34.05000000      0.99000000     54.36000000
C22     33.11000000      0.82000000     55.54000000
C23     32.13000000      1.98000000     55.74000000
C24     31.42000000      1.64000000     57.01000000
C25     31.14000000      2.04000000     58.24000000
C26     30.34000000      1.16000000     59.14000000
C27     29.82000000      1.82000000     60.41000000
C28     30.96000000      2.26000000     61.31000000
C29     30.37000000      2.78000000     62.60000000
C30     29.50000000      1.69000000     63.19000000
C31     29.04000000      2.09000000     64.59000000
C32     28.63000000      0.82000000     65.33000000
C33     29.70000000      0.41000000     66.32000000
C34     42.36000000      0.45000000     51.37000000
OS35     42.35000000     99.45000000     52.44000000
C36     42.65000000     99.70000000     53.78000000
O37     43.13000000      0.71000000     54.26000000
C38     42.56000000     98.42000000     54.59000000
C39     42.66000000     98.57000000     56.11000000
C40     41.27000000     98.45000000     56.70000000
C41     41.23000000     98.45000000     58.20000000
C42     39.88000000     98.99000000     58.61000000
C43     40.11000000     99.02000000     60.09000000
C44     39.02000000     99.56000000     60.95000000
C45     39.65000000     99.12000000     62.25000000
C46     39.13000000     99.85000000     63.44000000
C47     39.61000000     99.49000000     64.82000000
C48     41.05000000     99.89000000     65.10000000
C49     41.05000000      0.34000000     66.55000000
C50     40.09000000     99.40000000     67.26000000
C51     40.77000000     98.88000000     68.52000000
C52     41.92000000     97.94000000     68.15000000
 C1     48.13000000      3.22000000     45.05000000
 C2     46.23000000      2.08000000     44.22000000
 C3     48.44000000      0.99000000     44.25000000
 N4     47.50000000      1.90000000     44.91000000
 C5     47.09000000      1.32000000     46.22000000
 C6     48.23000000      0.91000000     47.14000000
OS7     48.85000000      2.12000000     47.50000000
 P8     50.22000000      2.06000000     48.22000000
OM9     50.83000000      1.27000000     47.11000000
OM10     50.29000000      3.51000000     48.00000000
OS11     49.60000000      1.14000000     49.41000000
C12     48.50000000      1.56000000     50.26000000
C13     47.81000000      0.78000000     51.39000000
OS14     46.96000000      1.73000000     52.14000000
C15     45.69000000      2.08000000     51.74000000
O16     45.36000000      1.89000000     50.57000000
C17     44.95000000      2.95000000     52.77000000
C18     43.44000000      3.12000000     52.61000000
C19     42.17000000      3.94000000     52.94000000
C20     41.72000000      4.07000000     54.38000000
C21     40.76000000      5.24000000     54.56000000
C22     40.37000000      5.33000000     56.03000000
C23     39.56000000      6.57000000     56.39000000
C24     39.37000000      6.76000000     57.86000000
C25     39.17000000      6.96000000     59.19000000
C26     38.34000000      7.74000000     60.18000000
C27     37.18000000      7.26000000     61.08000000
C28     37.64000000      6.44000000     62.27000000
C29     36.53000000      6.23000000     63.30000000
C30     35.43000000      5.28000000     62.86000000
C31     34.69000000      4.74000000     64.08000000
C32     33.67000000      3.62000000     63.83000000
C33     33.25000000      2.89000000     65.11000000
C34     48.87000000      0.00000000     52.23000000
OS35     48.60000000     98.61000000     52.64000000
C36     49.06000000     97.97000000     53.81000000
O37     50.02000000     98.35000000     54.46000000
C38     48.21000000     96.84000000     54.41000000
C39     48.17000000     96.76000000     55.97000000
C40     47.36000000     97.42000000     57.13000000
C41     46.56000000     98.08000000     58.29000000
C42     45.28000000     98.92000000     58.17000000
C43     44.52000000     98.92000000     59.49000000
C44     45.31000000     99.64000000     60.55000000
C45     44.80000000     99.32000000     61.94000000
C46     44.95000000      0.61000000     62.73000000
C47     44.34000000      0.46000000     64.11000000
C48     45.32000000     99.71000000     64.98000000
C49     44.96000000     99.83000000     66.45000000
C50     46.19000000     99.23000000     67.09000000
C51     46.56000000     99.72000000     68.47000000
C52     47.92000000     99.09000000     68.72000000
 C1     55.18000000      2.90000000     44.93000000
 C2     52.87000000      2.23000000     44.48000000
 C3     54.76000000      0.68000000     44.37000000
 N4     54.17000000      1.84000000     45.03000000
 C5     53.84000000      1.47000000     46.43000000
 C6     55.00000000      1.05000000     47.31000000
OS7     55.73000000      2.24000000     47.59000000
 P8     57.02000000      2.17000000     48.49000000
OM9     57.62000000      1.47000000     47.32000000
OM10     56.90000000      3.64000000     48.44000000
OS11     56.26000000      1.23000000     49.52000000
C12     55.45000000      1.95000000     50.43000000
C13     54.49000000      1.20000000     51.35000000
OS14     53.37000000      2.11000000     51.77000000
C15     52.39000000      2.65000000     50.94000000
O16     52.49000000      2.40000000     49.73000000
C17     51.13000000      3.37000000     51.56000000
C18     49.99000000      4.30000000     50.91000000
C19     48.42000000      4.68000000     51.17000000
C20     47.41000000      5.32000000     52.27000000
C21     47.24000000      6.53000000     53.37000000
C22     47.86000000      7.24000000     54.68000000
C23     48.47000000      7.93000000     56.00000000
C24     47.85000000      8.59000000     57.27000000
C25     47.32000000      9.18000000     58.38000000
C26     46.45000000      8.56000000     59.46000000
C27     45.33000000      9.35000000     60.17000000
C28     45.41000000      9.67000000     61.69000000
C29     44.16000000      9.14000000     62.44000000
C30     43.57000000      9.19000000     63.88000000
C31     43.77000000      8.48000000     65.24000000
C32     42.46000000      8.16000000     66.00000000
C33     42.66000000      7.42000000     67.32000000
C34     55.41000000      0.35000000     52.32000000
OS35     55.00000000     99.04000000     52.85000000
C36     55.19000000     98.57000000     54.16000000
O37     55.94000000     99.09000000     54.96000000
C38     54.31000000     97.45000000     54.68000000
C39     54.00000000     97.84000000     56.13000000
C40     52.58000000     98.35000000     56.48000000
C41     52.48000000     98.93000000     57.89000000
C42     51.09000000     98.90000000     58.50000000
C43     51.04000000     98.71000000     60.01000000
C44     52.02000000     99.55000000     60.84000000
C45     51.79000000     99.25000000     62.33000000
C46     52.83000000     99.75000000     63.33000000
C47     52.31000000     99.46000000     64.74000000
C48     53.35000000     99.78000000     65.80000000
C49     52.83000000      0.22000000     67.16000000
C50     51.47000000     99.65000000     67.53000000
C51     51.12000000      0.26000000     68.88000000
C52     52.20000000     99.92000000     69.91000000
 C1     61.09000000      3.47000000     45.26000000
 C2     59.48000000      1.79000000     44.63000000
 C3     61.86000000      1.22000000     44.85000000
 N4     60.74000000      2.04000000     45.33000000
 C5     60.47000000      1.64000000     46.72000000
 C6     61.46000000      1.95000000     47.85000000
OS7     61.55000000      3.34000000     48.11000000
 P8     62.75000000      3.65000000     49.09000000
OM9     63.68000000      3.59000000     47.92000000
OM10     62.37000000      4.99000000     49.50000000
OS11     62.51000000      2.44000000     50.15000000
C12     61.84000000      2.62000000     51.43000000
C13     60.82000000      1.56000000     52.00000000
OS14     59.79000000      2.33000000     52.70000000
C15     58.73000000      2.72000000     51.93000000
O16     58.59000000      2.19000000     50.83000000
C17     57.63000000      3.52000000     52.64000000
C18     56.93000000      4.61000000     51.79000000
C19     55.42000000      4.84000000     52.05000000
C20     54.89000000      4.43000000     53.44000000
C21     53.68000000      5.22000000     53.96000000
C22     53.36000000      5.10000000     55.47000000
C23     53.17000000      6.48000000     56.15000000
C24     52.39000000      6.75000000     57.43000000
C25     51.69000000      7.00000000     58.58000000
C26     50.45000000      7.53000000     59.27000000
C27     49.68000000      6.73000000     60.36000000
C28     50.34000000      6.46000000     61.70000000
C29     49.48000000      5.83000000     62.80000000
C30     48.94000000      4.42000000     62.53000000
C31     47.60000000      3.76000000     62.99000000
C32     46.47000000      3.48000000     64.01000000
C33     46.44000000      2.84000000     65.40000000
C34     61.49000000      0.34000000     52.77000000
OS35     61.37000000     98.94000000     53.33000000
C36     61.92000000     98.14000000     54.38000000
O37     62.96000000     98.34000000     54.97000000
C38     61.33000000     96.77000000     54.72000000
C39     61.21000000     96.54000000     56.25000000
C40     59.80000000     96.93000000     56.69000000
C41     59.56000000     97.49000000     58.09000000
C42     58.36000000     98.45000000     58.27000000
C43     58.08000000     98.73000000     59.75000000
C44     59.12000000     99.48000000     60.55000000
C45     58.94000000     99.00000000     61.97000000
C46     59.37000000      0.11000000     62.88000000
C47     58.67000000    100.00000000     64.20000000
C48     59.39000000     98.96000000     65.02000000
C49     59.12000000     99.31000000     66.47000000
C50     59.00000000     97.97000000     67.13000000
C51     59.47000000     98.06000000     68.55000000
C52     60.98000000     97.83000000     68.51000000
 C1     67.29000000      0.45000000     44.87000000
 C2     68.80000000      2.23000000     44.39000000
 C3     66.41000000      2.65000000     44.38000000
 N4     67.52000000      1.91000000     44.99000000
 C5     67.65000000      2.32000000     46.41000000
 C6     66.37000000      2.13000000     47.21000000
OS7     66.16000000      0.75000000     47.39000000
 P8     64.80000000      0.33000000     48.06000000
OM9     64.03000000      0.66000000     46.83000000
OM10     64.97000000     98.94000000     48.40000000
OS11     64.83000000      1.43000000     49.18000000
C12     65.77000000      1.18000000     50.20000000
C13     66.55000000      2.33000000     50.85000000
OS14     67.53000000      1.47000000     51.57000000
C15     68.58000000      0.68000000     51.09000000
O16     68.91000000      0.73000000     49.89000000
C17     69.34000000     99.94000000     52.22000000
C18     70.84000000     99.65000000     52.01000000
C19     71.76000000     99.51000000     53.26000000
C20     71.99000000      0.65000000     54.32000000
C21     73.48000000      0.90000000     54.78000000
C22     74.38000000      1.56000000     55.88000000
C23     75.87000000      1.06000000     55.98000000
C24     76.56000000      0.85000000     57.34000000
C25     77.85000000      0.65000000     57.77000000
C26     78.55000000      0.49000000     59.14000000
C27     79.50000000     99.46000000     59.86000000
C28     79.58000000     98.12000000     60.66000000
C29     78.96000000     98.04000000     62.08000000
C30     78.99000000     99.42000000     62.73000000
C31     79.17000000     99.57000000     64.25000000
C32     79.50000000      1.02000000     64.65000000
C33     80.00000000      1.25000000     66.08000000
C34     65.64000000      3.56000000     51.40000000
OS35     66.02000000      4.79000000     52.22000000
C36     65.43000000      5.85000000     52.99000000
O37     64.27000000      6.17000000     52.71000000
C38     66.24000000      6.64000000     54.16000000
C39     66.53000000      6.88000000     55.74000000
C40     67.80000000      7.23000000     56.65000000
C41     68.46000000      7.03000000     58.10000000
C42     69.41000000      5.95000000     58.84000000
C43     70.16000000      5.09000000     59.98000000
C44     69.52000000      3.98000000     60.89000000