23400
Energy = 299668.94969039 au
 C1      3.19000000      1.31000000     45.54000000
 C2      2.08000000      3.28000000     44.69000000
 C3      0.83000000      1.23000000     45.07000000
 N4      1.94000000      2.08000000     45.51000000
 C5      1.62000000      2.58000000     46.87000000
 C6      1.26000000      1.60000000     48.00000000
OS7      2.35000000      0.71000000     48.18000000
 P8      2.04000000     99.45000000     49.08000000
OM9      0.92000000     99.05000000     48.20000000
OM10      3.36000000     98.84000000     49.00000000
OS11      1.57000000      0.20000000     50.39000000
C12      2.07000000     99.83000000     51.70000000
C13      1.49000000      0.78000000     52.78000000
OS14      2.28000000      1.19000000     53.97000000
C15      3.20000000      2.20000000     53.75000000
O16      3.70000000      2.14000000     52.67000000
C17      3.74000000      3.26000000     54.74000000
C18      3.60000000      4.80000000     54.47000000
C19      4.38000000      5.62000000     53.41000000
C20      4.73000000      7.04000000     53.88000000
C21      6.11000000      7.74000000     53.83000000
C22      6.41000000      8.65000000     55.04000000
C23      7.85000000      8.67000000     55.57000000
C24      8.05000000      9.02000000     57.03000000
C25      8.24000000      9.31000000     58.35000000
C26      8.59000000      9.04000000     59.80000000
C27      7.91000000     10.04000000     60.75000000
C28      7.49000000     10.54000000     62.14000000
C29      7.06000000     12.04000000     62.39000000
C30      7.16000000     13.62000000     62.33000000
C31      6.67000000     14.66000000     63.39000000
C32      7.33000000     14.49000000     64.75000000
C33      7.14000000     15.01000000     66.17000000
C34     99.94000000      0.52000000     52.85000000
OS35     99.01000000      1.67000000     52.78000000
C36     97.95000000      1.75000000     53.67000000
O37     97.74000000      0.81000000     54.42000000
C38     97.26000000      3.14000000     53.84000000
C39     96.94000000      3.59000000     55.30000000
C40     97.46000000      4.93000000     55.92000000
C41     97.88000000      5.12000000     57.42000000
C42     99.38000000      5.08000000     57.81000000
C43     99.95000000      4.71000000     59.21000000
C44      0.07000000      3.53000000     60.20000000
C45      0.21000000      3.89000000     61.69000000
C46     99.74000000      2.96000000     62.81000000
C47      0.19000000      3.34000000     64.23000000
C48     99.58000000      2.57000000     65.42000000
C49      0.26000000      2.85000000     66.77000000
C50     99.32000000      3.50000000     67.79000000
C51      0.06000000      4.30000000     68.86000000
C52     99.08000000      4.99000000     69.80000000
 C1      8.21000000      3.29000000     45.43000000
 C2      6.79000000      1.50000000     44.89000000
 C3      9.04000000      1.51000000     43.96000000
 N4      8.19000000      1.85000000     45.10000000
 C5      8.60000000      1.04000000     46.27000000
 C6     10.09000000      1.12000000     46.67000000
OS7     10.36000000      2.46000000     47.03000000
 P8     10.96000000      2.78000000     48.48000000
OM9     12.19000000      2.45000000     47.71000000
OM10     10.27000000      4.06000000     48.30000000
OS11     10.05000000      1.64000000     49.13000000
C12      8.77000000      1.91000000     49.69000000
C13      7.83000000      0.70000000     49.96000000
OS14      6.41000000      1.16000000     50.07000000
C15      5.57000000      1.93000000     49.25000000
O16      5.85000000      2.11000000     48.04000000
C17      4.19000000      2.34000000     49.87000000
C18      3.52000000      3.73000000     50.24000000
C19      2.11000000      3.97000000     50.94000000
C20      0.99000000      3.92000000     52.08000000
C21      0.45000000      4.21000000     53.55000000
C22      0.53000000      3.70000000     55.07000000
C23      0.25000000      2.31000000     55.79000000
C24     99.68000000      1.93000000     57.17000000
C25     98.41000000      1.86000000     57.68000000
C26     97.77000000      1.63000000     59.04000000
C27     96.52000000      2.41000000     59.57000000
C28     96.77000000      3.67000000     60.40000000
C29     96.02000000      3.84000000     61.72000000
C30     96.31000000      2.82000000     62.81000000
C31     95.94000000      3.32000000     64.20000000
C32     95.59000000      2.23000000     65.21000000
C33     96.25000000      2.38000000     66.58000000
C34      8.69000000     99.84000000     50.98000000
OS35      8.47000000     98.82000000     52.02000000
C36      9.52000000     98.37000000     52.81000000
O37     10.69000000     98.55000000     52.52000000
C38      9.18000000     97.41000000     53.96000000
C39     10.17000000     97.21000000     55.14000000
C40     10.27000000     98.33000000     56.18000000
C41     10.50000000     97.94000000     57.65000000
C42      9.90000000     99.04000000     58.53000000
C43     10.22000000     99.06000000     60.03000000
C44      9.36000000      0.12000000     60.73000000
C45      9.57000000      0.22000000     62.25000000
C46      8.38000000      0.85000000     62.98000000
C47      8.51000000      1.04000000     64.50000000
C48      9.26000000      0.02000000     65.37000000
C49      8.87000000      0.21000000     66.84000000
C50      9.18000000     99.01000000     67.75000000
C51      8.35000000     99.13000000     69.04000000
C52      8.19000000     97.78000000     69.76000000
 C1     14.08000000      3.16000000     45.28000000
 C2     13.40000000      1.01000000     44.63000000
 C3     15.57000000      1.83000000     43.85000000
 N4     14.58000000      1.81000000     44.94000000
 C5     15.17000000      1.15000000     46.13000000
 C6     16.54000000      1.69000000     46.58000000
OS7     16.34000000      3.05000000     46.91000000
 P8     16.80000000      3.49000000     48.37000000
OM9     18.08000000      3.60000000     47.62000000
OM10     15.84000000      4.60000000     48.34000000
OS11     16.29000000      2.11000000     49.04000000
C12     15.00000000      1.89000000     49.65000000
C13     14.83000000      0.64000000     50.57000000
OS14     13.95000000      1.06000000     51.62000000
C15     12.66000000      0.74000000     51.50000000
O16     12.17000000      0.61000000     50.37000000
C17     12.00000000      1.13000000     52.80000000
C18     10.80000000      2.02000000     52.65000000
C19     10.26000000      2.42000000     54.01000000
C20      9.60000000      1.36000000     54.88000000
C21      8.72000000      2.09000000     55.88000000
C22      7.89000000      1.40000000     56.98000000
C23      6.65000000      2.25000000     57.21000000
C24      5.51000000      2.08000000     58.18000000
C25      4.20000000      1.99000000     57.85000000
C26      2.86000000      1.86000000     58.56000000
C27      2.36000000      0.85000000     59.61000000
C28      2.64000000      1.10000000     61.10000000
C29      1.86000000      0.13000000     62.02000000
C30      1.80000000      0.43000000     63.54000000
C31      1.03000000     99.61000000     64.60000000
C32      1.78000000     98.47000000     65.26000000
C33      1.40000000     98.01000000     66.67000000
C34     16.14000000      0.05000000     51.16000000
OS35     16.04000000     99.21000000     52.34000000
C36     16.87000000     99.24000000     53.43000000
O37     17.94000000     99.85000000     53.57000000
C38     16.28000000     98.34000000     54.48000000
C39     16.42000000     98.81000000     55.92000000
C40     15.29000000     98.08000000     56.62000000
C41     15.29000000     98.22000000     58.13000000
C42     14.08000000     97.43000000     58.61000000
C43     14.15000000     97.28000000     60.12000000
C44     14.06000000     98.65000000     60.79000000
C45     13.95000000     98.34000000     62.27000000
C46     12.90000000     99.23000000     62.89000000
C47     12.57000000     98.73000000     64.29000000
C48     13.86000000     98.41000000     65.05000000
C49     13.55000000     98.42000000     66.54000000
C50     14.70000000     97.84000000     67.34000000
C51     14.10000000     97.16000000     68.56000000
C52     14.41000000     97.90000000     69.86000000
 C1     21.42000000      3.46000000     45.37000000
 C2     19.91000000      1.81000000     44.68000000
 C3     22.25000000      1.64000000     43.98000000
 N4     21.31000000      2.02000000     45.03000000
 C5     21.54000000      1.16000000     46.22000000
 C6     22.96000000      1.15000000     46.79000000
OS7     23.14000000      2.46000000     47.29000000
 P8     24.00000000      2.77000000     48.58000000
OM9     25.05000000      2.52000000     47.56000000
OM10     23.22000000      4.02000000     48.53000000
OS11     23.27000000      1.52000000     49.29000000
C12     21.99000000      1.74000000     49.91000000
C13     21.32000000      0.62000000     50.74000000
OS14     20.29000000      1.23000000     51.56000000
C15     19.24000000      1.88000000     51.03000000
O16     18.92000000      1.78000000     49.83000000
C17     18.41000000      2.47000000     52.15000000
C18     17.29000000      3.32000000     51.60000000
C19     16.01000000      3.40000000     52.44000000
C20     16.05000000      2.52000000     53.67000000
C21     14.69000000      2.62000000     54.31000000
C22     14.47000000      1.65000000     55.46000000
C23     13.17000000      2.16000000     56.01000000
C24     12.36000000      1.67000000     57.14000000
C25     11.61000000      2.60000000     57.72000000
C26     10.58000000      2.49000000     58.76000000
C27     10.77000000      3.35000000     59.97000000
C28     11.52000000      2.67000000     61.06000000
C29     11.05000000      3.36000000     62.31000000
C30     11.51000000      2.62000000     63.55000000
C31     11.06000000      3.48000000     64.71000000
C32     11.09000000      2.80000000     66.06000000
C33     12.40000000      2.11000000     66.40000000
C34     22.38000000     99.96000000     51.65000000
OS35     21.97000000     98.90000000     52.53000000
C36     22.29000000     99.06000000     53.85000000
O37     23.03000000     99.94000000     54.28000000
C38     22.08000000     97.76000000     54.60000000
C39     22.41000000     97.93000000     56.07000000
C40     21.30000000     98.79000000     56.63000000
C41     21.30000000     98.75000000     58.14000000
C42     19.87000000     99.08000000     58.48000000
C43     19.64000000     98.85000000     59.96000000
C44     20.55000000     99.79000000     60.73000000
C45     20.15000000     99.70000000     62.18000000
C46     20.67000000      0.97000000     62.83000000
C47     20.20000000      0.98000000     64.26000000
C48     20.89000000     99.88000000     65.02000000
C49     20.55000000      0.13000000     66.47000000
C50     21.07000000     98.96000000     67.28000000
C51     20.65000000     99.20000000     68.71000000
C52     20.95000000     97.96000000     69.53000000
 C1     28.05000000      3.41000000     45.27000000
 C2     26.79000000      1.44000000     44.77000000
 C3     29.22000000      1.30000000     44.99000000
 N4     27.98000000      1.95000000     45.44000000
 C5     27.79000000      1.60000000     46.87000000
 C6     28.87000000      2.01000000     47.87000000
OS7     29.02000000      3.42000000     47.91000000
 P8     30.13000000      4.01000000     48.86000000
OM9     31.21000000      3.82000000     47.85000000
OM10     29.46000000      5.31000000     48.88000000
OS11     30.00000000      2.96000000     50.05000000
C12     28.99000000      3.10000000     51.06000000
C13     28.45000000      1.79000000     51.70000000
OS14     27.28000000      2.13000000     52.48000000
C15     26.11000000      2.30000000     51.82000000
O16     25.97000000      2.04000000     50.62000000
C17     25.01000000      2.73000000     52.77000000
C18     24.00000000      3.47000000     51.91000000
C19     22.60000000      3.63000000     52.52000000
C20     22.26000000      2.74000000     53.68000000
C21     20.95000000      3.21000000     54.29000000
C22     20.38000000      2.15000000     55.22000000
C23     19.54000000      2.88000000     56.24000000
C24     18.50000000      2.07000000     56.91000000
C25     18.21000000      2.09000000     58.21000000
C26     17.07000000      1.30000000     58.76000000
C27     17.06000000      1.07000000     60.27000000
C28     17.74000000      2.19000000     61.05000000
C29     17.06000000      2.29000000     62.40000000
C30     16.60000000      1.02000000     63.08000000
C31     15.40000000      1.33000000     63.99000000
C32     15.69000000      1.81000000     65.40000000
C33     16.51000000      0.81000000     66.20000000
C34     29.52000000      1.08000000     52.57000000
OS35     29.32000000     99.70000000     52.96000000
C36     30.16000000     99.20000000     53.93000000
O37     31.32000000     99.60000000     54.01000000
C38     29.69000000     97.87000000     54.53000000
C39     29.47000000     97.89000000     56.05000000
C40     28.02000000     97.56000000     56.45000000
C41     27.64000000     97.78000000     57.93000000
C42     26.17000000     97.67000000     58.35000000
C43     26.05000000     97.49000000     59.88000000
C44     26.08000000     98.75000000     60.74000000
C45     26.35000000     98.39000000     62.21000000
C46     25.57000000     99.33000000     63.13000000
C47     25.74000000     99.06000000     64.63000000
C48     27.09000000     99.50000000     65.18000000
C49     27.05000000     99.56000000     66.71000000
C50     26.54000000     98.23000000     67.27000000
C51     26.64000000     98.19000000     68.79000000
C52     28.09000000     98.04000000     69.27000000
 C1     34.43000000      0.42000000     45.16000000
 C2     35.95000000      2.15000000     44.58000000
 C3     33.59000000      2.66000000     44.91000000
 N4     34.74000000      1.86000000     45.34000000
 C5     35.06000000      2.16000000     46.76000000
 C6     33.93000000      1.97000000     47.78000000
OS7     33.57000000      0.60000000     47.84000000
 P8     32.06000000      0.33000000     48.14000000
OM9     31.55000000      0.82000000     46.83000000
OM10     31.95000000     98.93000000     48.47000000
OS11     31.90000000      1.27000000     49.38000000
C12     32.36000000      0.73000000     50.61000000
C13     33.42000000      1.60000000     51.30000000
OS14     34.41000000      0.63000000     51.82000000
C15     35.52000000      0.02000000     51.21000000
O16     35.88000000      0.33000000     50.07000000
C17     36.41000000     99.29000000     52.26000000
C18     37.96000000     99.37000000     52.14000000
C19     38.81000000     99.24000000     53.44000000
C20     39.27000000      0.55000000     54.14000000
C21     40.23000000      0.64000000     55.37000000
C22     41.77000000      0.95000000     55.40000000
C23     42.46000000      1.02000000     56.79000000
C24     43.98000000      1.02000000     56.92000000
C25     44.71000000      1.22000000     58.06000000
C26     46.17000000      1.20000000     58.48000000
C27     46.41000000      0.78000000     59.95000000
C28     47.28000000     99.52000000     60.20000000
C29     47.01000000     98.65000000     61.43000000
C30     47.07000000     99.33000000     62.80000000
C31     48.41000000     99.96000000     63.15000000
C32     48.43000000      0.49000000     64.58000000
C33     47.92000000      1.92000000     64.71000000
C34     32.78000000      2.93000000     51.96000000
OS35     33.37000000      3.89000000     52.95000000
C36     32.92000000      5.08000000     53.60000000
O37     32.14000000      5.78000000     52.96000000
C38     33.70000000      5.62000000     54.90000000
C39     33.89000000      6.46000000     56.26000000
C40     35.07000000      7.25000000     57.06000000
C41     36.10000000      7.29000000     58.29000000
C42     37.51000000      6.68000000     58.71000000
C43     38.06000000      6.81000000     60.18000000
C44     39.11000000      5.80000000     60.77000000
C45     39.03000000      5.46000000     62.30000000
C46     39.31000000      4.03000000     62.86000000
C47     39.17000000      3.80000000     64.38000000
C48     38.21000000      4.72000000     65.16000000
C49     38.12000000      4.39000000     66.65000000
C50     37.92000000      5.70000000     67.42000000
C51     37.86000000      5.49000000     68.93000000
C52     36.81000000      6.43000000     69.49000000
 C1     41.25000000      3.41000000     45.32000000
 C2     39.68000000      1.83000000     44.49000000
 C3     42.05000000      1.40000000     44.22000000
 N4     41.00000000      1.97000000     45.07000000
 C5     40.94000000      1.19000000     46.34000000
 C6     42.29000000      0.98000000     47.05000000
OS7     42.70000000      2.30000000     47.37000000
 P8     43.84000000      2.72000000     48.39000000
OM9     44.64000000      2.28000000     47.21000000
OM10     43.06000000      3.97000000     48.31000000
OS11     43.25000000      1.55000000     49.29000000
C12     42.29000000      2.03000000     50.21000000
C13     41.48000000      0.99000000     50.97000000
OS14     40.37000000      1.72000000     51.55000000
C15     39.43000000      2.38000000     50.80000000
O16     39.29000000      2.34000000     49.57000000
C17     38.67000000      3.25000000     51.76000000
C18     37.39000000      3.79000000     51.17000000
C19     36.23000000      3.08000000     51.86000000
C20     36.19000000      2.76000000     53.38000000
C21     35.32000000      1.85000000     54.33000000
C22     33.96000000      1.34000000     54.95000000
C23     32.75000000      2.24000000     55.32000000
C24     31.93000000      2.32000000     56.58000000
C25     31.23000000      3.40000000     57.01000000
C26     30.46000000      3.44000000     58.31000000
C27     30.20000000      4.66000000     59.19000000
C28     29.85000000      4.25000000     60.63000000
C29     28.42000000      3.77000000     60.77000000
C30     27.92000000      3.13000000     62.06000000
C31     26.49000000      2.60000000     61.95000000
C32     25.58000000      3.23000000     62.99000000
C33     25.57000000      2.54000000     64.35000000
C34     42.45000000      0.22000000     51.91000000
OS35     41.95000000     99.02000000     52.55000000
C36     42.71000000     98.37000000     53.51000000
O37     43.93000000     98.32000000     53.45000000
C38     41.80000000     97.40000000     54.28000000
C39     41.66000000     97.45000000     55.81000000
C40     40.19000000     97.50000000     56.32000000
C41     40.07000000     98.09000000     57.74000000
C42     38.67000000     98.57000000     58.18000000
C43     38.43000000     98.58000000     59.70000000
C44     39.39000000     99.39000000     60.59000000
C45     38.89000000     99.44000000     62.05000000
C46     39.81000000      0.18000000     63.04000000
C47     39.25000000      0.11000000     64.47000000
C48     40.21000000      0.61000000     65.57000000
C49     39.57000000      0.51000000     66.96000000
C50     40.04000000     99.29000000     67.75000000
C51     39.18000000     98.97000000     68.97000000
C52     39.74000000     97.77000000     69.74000000
 C1     47.63000000      3.39000000     45.60000000
 C2     46.21000000      1.73000000     44.73000000
 C3     48.64000000      1.40000000     44.64000000
 N4     47.50000000      1.94000000     45.38000000
 C5     47.38000000      1.20000000     46.67000000
 C6     48.60000000      1.15000000     47.59000000
OS7     48.93000000      2.50000000     47.87000000
 P8     50.10000000      2.91000000     48.83000000
OM9     50.92000000      2.26000000     47.77000000
OM10     49.68000000      4.30000000     48.66000000
OS11     49.42000000      1.98000000     49.93000000
C12     48.32000000      2.61000000     50.61000000
C13     47.54000000      1.85000000     51.70000000
OS14     46.70000000      2.76000000     52.45000000
C15     45.47000000      2.83000000     51.91000000
O16     45.27000000      2.25000000     50.85000000
C17     44.43000000      3.59000000     52.72000000
C18     43.64000000      4.59000000     51.86000000
C19     42.22000000      4.93000000     52.37000000
C20     41.68000000      4.08000000     53.54000000
C21     40.79000000      4.85000000     54.54000000
C22     40.10000000      3.89000000     55.53000000
C23     39.95000000      4.15000000     57.04000000
C24     39.39000000      3.05000000     57.94000000
C25     38.46000000      3.19000000     58.91000000
C26     37.81000000      2.29000000     59.95000000
C27     36.60000000      2.59000000     60.87000000
C28     36.34000000      4.04000000     61.29000000
C29     35.81000000      4.31000000     62.69000000
C30     35.23000000      2.98000000     63.07000000
C31     35.34000000      2.77000000     64.56000000
C32     34.97000000      1.31000000     64.80000000
C33     34.87000000      1.04000000     66.29000000
C34     48.48000000      1.05000000     52.62000000
OS35     47.73000000      0.07000000     53.37000000
C36     48.44000000     99.06000000     53.92000000
O37     49.58000000     98.79000000     53.54000000
C38     47.47000000     98.07000000     54.56000000
C39     47.08000000     98.33000000     56.03000000
C40     45.67000000     97.80000000     56.37000000
C41     45.41000000     97.77000000     57.89000000
C42     43.98000000     97.75000000     58.48000000
C43     43.92000000     98.05000000     60.00000000
C44     43.33000000     99.37000000     60.57000000
C45     43.42000000     99.54000000     62.11000000
C46     43.96000000      0.84000000     62.75000000
C47     43.90000000      0.96000000     64.29000000
C48     44.62000000     99.88000000     65.14000000
C49     44.94000000      0.33000000     66.57000000
C50     45.71000000     99.30000000     67.42000000
C51     44.81000000     98.12000000     67.83000000
C52     45.45000000     97.22000000     68.89000000
 C1     55.09000000      3.19000000     45.45000000
 C2     52.97000000      2.65000000     44.49000000
 C3     54.67000000      0.89000000     44.81000000
 N4     54.07000000      2.13000000     45.29000000
 C5     53.42000000      1.86000000     46.59000000
 C6     54.14000000      1.27000000     47.80000000
OS7     55.23000000      2.13000000     48.03000000
 P8     56.20000000      1.65000000     49.15000000
OM9     56.41000000      0.33000000     48.54000000
OM10     56.98000000      2.89000000     48.99000000
OS11     55.20000000      1.54000000     50.31000000
C12     55.15000000      2.59000000     51.25000000
C13     54.01000000      2.18000000     52.17000000
OS14     53.23000000      3.24000000     52.73000000
C15     52.09000000      3.30000000     52.01000000
O16     52.10000000      3.16000000     50.79000000
C17     50.93000000      3.78000000     52.84000000
C18     50.20000000      4.88000000     52.08000000
C19     48.86000000      5.18000000     52.76000000
C20     48.92000000      5.08000000     54.28000000
C21     48.94000000      6.47000000     54.90000000
C22     47.77000000      6.73000000     55.83000000
C23     48.26000000      6.71000000     57.27000000
C24     47.20000000      7.03000000     58.28000000
C25     46.17000000      7.34000000     59.10000000
C26     44.74000000      7.74000000     58.87000000
C27     44.18000000      8.75000000     59.86000000
C28     44.79000000      8.61000000     61.24000000
C29     44.58000000      9.90000000     62.03000000
C30     43.85000000      9.59000000     63.31000000
C31     43.84000000     10.67000000     64.36000000
C32     43.27000000     10.05000000     65.62000000
C33     43.96000000      8.77000000     66.07000000
C34     54.48000000      1.06000000     53.09000000
OS35     53.36000000      0.37000000     53.64000000
C36     53.55000000     99.07000000     53.87000000
O37     54.60000000     98.46000000     53.70000000
C38     52.40000000     98.59000000     54.68000000
C39     52.60000000     99.21000000     56.04000000
C40     51.33000000     99.89000000     56.51000000
C41     51.58000000      0.26000000     57.96000000
C42     50.30000000      0.73000000     58.61000000
C43     50.48000000      0.53000000     60.11000000
C44     51.52000000      1.47000000     60.71000000
C45     51.55000000      1.21000000     62.21000000
C46     52.24000000      2.34000000     62.96000000
C47     51.97000000      2.21000000     64.46000000
C48     52.69000000      0.99000000     65.05000000
C49     52.42000000      0.92000000     66.55000000
C50     51.13000000      0.17000000     66.87000000
C51     50.66000000      0.54000000     68.27000000
C52     51.79000000      0.32000000     69.27000000
 C1     61.12000000      0.65000000     44.98000000
 C2     61.98000000      2.65000000     44.06000000
 C3     59.72000000      2.59000000     44.95000000
 N4     61.11000000      2.12000000     45.10000000
 C5     61.64000000      2.58000000     46.42000000
 C6     60.89000000      2.17000000     47.69000000
OS7     60.85000000      0.75000000     47.77000000
 P8     59.45000000      0.13000000     48.11000000
OM9     58.81000000      0.48000000     46.81000000
OM10     59.80000000     98.72000000     48.34000000
OS11     59.06000000      1.13000000     49.24000000
C12     59.46000000      0.77000000     50.54000000
C13     59.84000000      1.91000000     51.49000000
OS14     60.97000000      1.35000000     52.20000000
C15     62.15000000      1.18000000     51.53000000
O16     62.38000000      1.56000000     50.37000000
C17     63.12000000      0.51000000     52.46000000
C18     64.41000000      1.29000000     52.51000000
C19     64.84000000      1.76000000     53.91000000
C20     66.34000000      2.09000000     54.04000000
C21     67.55000000      1.35000000     54.68000000
C22     68.62000000      1.90000000     55.62000000
C23     69.92000000      1.12000000     55.65000000
C24     70.92000000      1.86000000     56.50000000
C25     71.26000000      1.78000000     57.79000000
C26     72.34000000      2.58000000     58.45000000
C27     73.27000000      1.83000000     59.38000000
C28     72.45000000      1.49000000     60.61000000
C29     73.29000000      1.29000000     61.86000000
C30     73.13000000      2.46000000     62.81000000
C31     72.85000000      2.08000000     64.27000000
C32     73.40000000      3.06000000     65.31000000
C33     72.90000000      2.86000000     66.73000000
C34     58.60000000      2.50000000     52.26000000
OS35     58.66000000      3.40000000     53.43000000
C36     57.64000000      3.61000000     54.34000000
O37     56.55000000      3.10000000     54.10000000
C38     57.82000000      4.56000000     55.57000000
C39     58.46000000      5.81000000     56.34000000
C40     59.37000000      6.37000000     57.52000000
C41     60.78000000      6.35000000     58.24000000
C42     61.16000000      5.48000000     59.46000000
C43     62.30000000      5.70000000     60.45000000
C44     61.80000000      5.16000000     61.79000000
C45     62.54000000      5.53000000     63.08000000
C46     63.76000000      4.68000000     63.40000000
C47     63.96000000      4.63000000     64.91000000
C48     62.57000000      4.77000000     65.51000000
C49     62.67000000      4.56000000     67.01000000
C50     63.36000000      5.77000000     67.59000000
C51     62.85000000      5.93000000     69.01000000
C52     62.40000000      7.36000000     69.24000000
 C1     67.86000000      3.45000000     45.35000000
 C2     65.74000000      2.54000000     44.84000000
 C3     67.73000000      1.37000000     44.06000000
 N4     67.12000000      2.18000000     45.12000000
 C5     67.08000000      1.40000000     46.38000000
 C6     68.39000000      0.68000000     46.77000000
OS7     69.39000000      1.69000000     46.91000000
 P8     70.40000000      1.67000000     48.14000000
OM9     71.04000000      0.66000000     47.26000000
OM10     70.53000000      3.10000000     47.85000000
OS11     69.25000000      1.17000000     49.08000000
C12     68.54000000      2.19000000     49.78000000
C13     67.27000000      1.67000000     50.43000000
OS14     66.61000000      2.83000000     51.05000000
C15     65.76000000      3.73000000     50.43000000
O16     65.38000000      3.57000000     49.25000000
C17     65.47000000      4.93000000     51.38000000
C18     64.41000000      6.07000000     51.25000000
C19     64.05000000      6.96000000     52.49000000
C20     62.84000000      7.99000000     52.56000000
C21     62.11000000      9.29000000     53.20000000
C22     61.25000000     10.14000000     54.23000000
C23     61.49000000     10.23000000     55.77000000
C24     60.53000000     10.98000000     56.69000000
C25     60.32000000     10.89000000     58.03000000
C26     59.44000000     11.78000000     58.90000000
C27     58.44000000     11.20000000     59.93000000
C28     58.68000000     11.38000000     61.44000000
C29     57.97000000     10.45000000     62.47000000
C30     56.52000000      9.94000000     62.44000000
C31     56.33000000      8.97000000     63.61000000
C32     54.92000000      8.43000000     63.90000000
C33     54.86000000      7.81000000     65.31000000
C34     67.69000000      0.38000000     51.22000000
OS35     66.67000000     99.52000000     51.82000000
C36     67.08000000     98.76000000     52.88000000
O37     68.28000000     98.55000000     53.04000000
C38     66.04000000     98.69000000     54.05000000
C39     64.73000000     98.56000000     54.89000000
C40     64.62000000     99.07000000     56.34000000
C41     64.64000000     98.08000000     57.52000000
C42     64.52000000     98.89000000     58.82000000
C43     64.84000000     98.29000000     60.19000000
C44     65.67000000     99.25000000     61.04000000