23400
Energy = 335209.81237211 au
 C1      0.97000000      3.14000000     45.12000000
 C2      0.60000000      1.11000000     43.93000000
 C3      2.87000000      1.91000000     44.31000000
 N4      1.51000000      1.80000000     44.85000000
 C5      1.51000000      0.99000000     46.09000000
 C6      2.60000000      1.35000000     47.10000000
OS7      2.38000000      2.70000000     47.48000000
 P8      3.58000000      3.44000000     48.19000000
OM9      4.34000000      3.26000000     46.91000000
OM10      2.83000000      4.69000000     48.27000000
OS11      3.51000000      2.29000000     49.33000000
C12      2.41000000      2.15000000     50.24000000
C13      1.86000000      0.82000000     50.85000000
OS14      0.58000000      1.21000000     51.41000000
C15     99.53000000      1.76000000     50.74000000
O16     99.35000000      1.64000000     49.51000000
C17     98.56000000      2.23000000     51.82000000
C18     97.05000000      2.15000000     51.61000000
C19     96.10000000      2.08000000     52.83000000
C20     95.76000000      0.95000000     53.83000000
C21     94.34000000      1.22000000     54.36000000
C22     93.58000000      0.34000000     55.37000000
C23     92.10000000      0.69000000     55.62000000
C24     91.30000000     99.89000000     56.60000000
C25     90.47000000      0.27000000     57.59000000
C26     89.75000000     99.25000000     58.43000000
C27     88.89000000     99.64000000     59.63000000
C28     89.71000000      0.18000000     60.79000000
C29     89.03000000     99.92000000     62.12000000
C30     89.31000000     98.54000000     62.72000000
C31     88.35000000     98.39000000     63.89000000
C32     88.89000000     97.44000000     64.95000000
C33     90.11000000     98.07000000     65.60000000
C34      2.74000000      0.19000000     51.98000000
OS35      2.64000000     98.76000000     52.37000000
C36      3.41000000     98.05000000     53.30000000
O37      4.47000000     98.42000000     53.76000000
C38      2.90000000     96.71000000     53.78000000
C39      3.70000000     96.21000000     54.99000000
C40      2.83000000     95.43000000     55.98000000
C41      3.29000000     95.51000000     57.43000000
C42      2.34000000     95.02000000     58.51000000
C43      2.92000000     95.31000000     59.89000000
C44      1.78000000     95.44000000     60.89000000
C45      2.38000000     95.86000000     62.22000000
C46      1.31000000     96.61000000     62.97000000
C47      1.98000000     97.25000000     64.16000000
C48      2.57000000     96.22000000     65.10000000
C49      2.17000000     96.74000000     66.46000000
C50      2.45000000     95.83000000     67.63000000
C51      2.12000000     96.65000000     68.87000000
C52      3.27000000     97.60000000     69.19000000
 C1      7.26000000      1.13000000     45.10000000
 C2      9.40000000      0.36000000     44.53000000
 C3      8.69000000      2.61000000     43.86000000
 N4      8.65000000      1.56000000     44.88000000
 C5      9.32000000      2.05000000     46.12000000
 C6      8.66000000      3.23000000     46.84000000
OS7      7.44000000      2.73000000     47.34000000
 P8      7.33000000      2.80000000     48.91000000
OM9      7.26000000      4.27000000     48.75000000
OM10      6.23000000      1.89000000     49.04000000
OS11      8.70000000      2.01000000     49.18000000
C12      8.77000000      1.23000000     50.39000000
C13      9.96000000      0.85000000     51.36000000
OS14      9.48000000     99.67000000     52.02000000
C15      8.90000000     98.59000000     51.42000000
O16      8.83000000     98.37000000     50.20000000
C17      8.44000000     97.75000000     52.58000000
C18      7.31000000     96.76000000     52.43000000
C19      7.04000000     96.32000000     53.85000000
C20      8.32000000     95.71000000     54.39000000
C21      8.09000000     95.41000000     55.85000000
C22      9.09000000     94.40000000     56.41000000
C23      8.74000000     92.96000000     56.03000000
C24      9.52000000     92.02000000     56.88000000
C25      9.37000000     91.81000000     58.18000000
C26     10.27000000     90.85000000     58.89000000
C27      9.75000000     90.24000000     60.17000000
C28      9.62000000     91.40000000     61.13000000
C29      9.62000000     90.90000000     62.56000000
C30     11.02000000     90.39000000     62.84000000
C31     11.11000000     89.81000000     64.24000000
C32     10.90000000     90.90000000     65.29000000
C33     12.04000000     91.91000000     65.21000000
C34     10.41000000      1.81000000     52.54000000
OS35     11.44000000      2.88000000     52.81000000
C36     11.35000000      3.93000000     53.76000000
O37     10.25000000      4.32000000     54.11000000
C38     12.60000000      4.48000000     54.52000000
C39     12.96000000      4.18000000     56.04000000
C40     14.14000000      3.43000000     56.83000000
C41     14.85000000      2.12000000     57.37000000
C42     15.42000000      1.74000000     58.80000000
C43     15.04000000      1.66000000     60.34000000
C44     13.97000000      0.71000000     60.97000000
C45     13.05000000      0.64000000     62.22000000
C46     12.05000000     99.49000000     62.34000000
C47     11.57000000     99.41000000     63.79000000
C48     12.15000000      0.54000000     64.63000000
C49     11.90000000      0.39000000     66.13000000
C50     12.35000000      1.65000000     66.85000000
C51     12.05000000      1.70000000     68.34000000
C52     12.51000000      3.02000000     68.94000000
 C1     14.71000000      3.24000000     45.32000000
 C2     13.43000000      1.34000000     44.81000000
 C3     15.58000000      1.68000000     43.67000000
 N4     14.81000000      1.82000000     44.91000000
 C5     15.43000000      0.96000000     45.95000000
 C6     16.87000000      1.27000000     46.38000000
OS7     16.85000000      2.56000000     46.96000000
 P8     17.48000000      2.84000000     48.41000000
OM9     18.67000000      2.80000000     47.52000000
OM10     16.54000000      3.99000000     48.40000000
OS11     16.74000000      1.51000000     48.91000000
C12     15.40000000      1.73000000     49.35000000
C13     14.48000000      0.68000000     50.00000000
OS14     13.28000000      1.48000000     50.38000000
C15     12.55000000      2.25000000     49.48000000
O16     12.41000000      1.93000000     48.28000000
C17     11.99000000      3.58000000     50.06000000
C18     10.54000000      4.12000000     49.85000000
C19      9.36000000      4.35000000     50.90000000
C20      8.19000000      4.02000000     51.93000000
C21      7.03000000      3.75000000     52.97000000
C22      6.82000000      3.84000000     54.53000000
C23      5.39000000      3.36000000     54.99000000
C24      4.53000000      3.02000000     56.23000000
C25      3.42000000      2.88000000     57.06000000
C26      2.97000000      2.39000000     58.46000000
C27      2.88000000      3.30000000     59.74000000
C28      2.57000000      2.99000000     61.24000000
C29      1.96000000      4.13000000     62.11000000
C30      1.28000000      4.30000000     63.52000000
C31      0.19000000      4.17000000     64.62000000
C32      0.59000000      4.65000000     66.03000000
C33     99.91000000      3.92000000     67.19000000
C34     15.43000000     99.86000000     50.96000000
OS35     15.14000000     98.93000000     52.04000000
C36     16.07000000     98.71000000     53.05000000
O37     17.09000000     99.39000000     53.20000000
C38     15.53000000     97.77000000     54.13000000
C39     16.14000000     97.84000000     55.53000000
C40     15.16000000     98.26000000     56.63000000
C41     15.44000000     97.54000000     57.97000000
C42     14.48000000     97.96000000     59.07000000
C43     14.68000000     97.41000000     60.49000000
C44     15.77000000     98.10000000     61.31000000
C45     15.53000000     98.45000000     62.79000000
C46     16.29000000     99.75000000     63.14000000
C47     15.80000000      0.42000000     64.42000000
C48     15.98000000     99.32000000     65.44000000
C49     15.49000000     99.62000000     66.83000000
C50     14.65000000     98.38000000     67.11000000
C51     14.70000000     97.97000000     68.57000000
C52     16.09000000     97.44000000     68.88000000
 C1     21.22000000      3.25000000     45.49000000
 C2     20.15000000      1.24000000     44.90000000
 C3     22.57000000      1.32000000     44.78000000
 N4     21.36000000      1.78000000     45.48000000
 C5     21.39000000      1.24000000     46.87000000
 C6     22.67000000      1.51000000     47.66000000
OS7     22.83000000      2.93000000     47.74000000
 P8     24.07000000      3.50000000     48.49000000
OM9     25.03000000      3.06000000     47.45000000
OM10     23.64000000      4.88000000     48.39000000
OS11     23.79000000      2.66000000     49.81000000
C12     22.64000000      3.07000000     50.55000000
C13     21.80000000      2.07000000     51.34000000
OS14     20.62000000      2.64000000     51.96000000
C15     19.47000000      1.97000000     51.68000000
O16     19.20000000      1.70000000     50.51000000
C17     18.46000000      2.13000000     52.80000000
C18     17.49000000      3.28000000     52.54000000
C19     16.05000000      2.88000000     52.25000000
C20     14.77000000      2.63000000     53.08000000
C21     14.54000000      1.48000000     54.07000000
C22     13.11000000      0.93000000     54.38000000
C23     11.93000000      1.19000000     55.40000000
C24     10.58000000      1.80000000     55.87000000
C25      9.66000000      2.29000000     56.78000000
C26      9.25000000      2.63000000     58.23000000
C27      9.18000000      1.65000000     59.47000000
C28      9.24000000      2.41000000     60.81000000
C29      9.53000000      1.88000000     62.22000000
C30      8.53000000      0.91000000     62.82000000
C31      7.97000000      1.24000000     64.21000000
C32      8.85000000      1.47000000     65.43000000
C33      8.12000000      1.67000000     66.77000000
C34     22.74000000      1.42000000     52.35000000
OS35     22.00000000      0.45000000     53.08000000
C36     22.71000000     99.48000000     53.66000000
O37     23.77000000     99.08000000     53.18000000
C38     21.73000000     98.74000000     54.54000000
C39     20.75000000     99.76000000     55.13000000
C40     19.56000000     99.13000000     55.86000000
C41     19.71000000     99.22000000     57.38000000
C42     18.59000000     98.50000000     58.15000000
C43     18.92000000     97.52000000     59.29000000
C44     18.97000000     98.08000000     60.72000000
C45     18.95000000     96.92000000     61.73000000
C46     18.72000000     97.37000000     63.18000000
C47     18.30000000     96.32000000     64.22000000
C48     19.25000000     96.25000000     65.41000000
C49     18.88000000     97.04000000     66.67000000
C50     20.03000000     97.08000000     67.68000000
C51     19.90000000     98.17000000     68.75000000
C52     21.10000000     98.19000000     69.70000000
 C1     28.70000000      0.57000000     44.99000000
 C2     29.23000000      2.91000000     44.71000000
 C3     26.92000000      2.22000000     44.96000000
 N4     28.33000000      1.95000000     45.33000000
 C5     28.49000000      2.12000000     46.79000000
 C6     27.42000000      1.42000000     47.63000000
OS7     27.33000000      0.02000000     47.46000000
 P8     25.98000000     99.41000000     48.01000000
OM9     25.20000000     99.74000000     46.78000000
OM10     26.33000000     98.01000000     48.22000000
OS11     25.53000000      0.31000000     49.24000000
C12     26.16000000      0.16000000     50.53000000
C13     27.13000000      1.32000000     50.86000000
OS14     28.43000000      0.72000000     51.20000000
C15     29.58000000      0.30000000     50.55000000
O16     29.82000000      0.53000000     49.35000000
C17     30.63000000     99.89000000     51.60000000
C18     32.03000000      0.41000000     52.09000000
C19     32.44000000      0.91000000     53.51000000
C20     33.91000000      1.35000000     53.80000000
C21     34.55000000      1.61000000     55.20000000
C22     35.96000000      2.17000000     55.52000000
C23     36.83000000      1.22000000     56.35000000
C24     37.45000000      1.60000000     57.67000000
C25     38.68000000      1.75000000     58.22000000
C26     39.04000000      2.10000000     59.65000000
C27     40.22000000      3.04000000     59.99000000
C28     40.25000000      3.26000000     61.51000000
C29     41.31000000      3.93000000     62.40000000
C30     42.19000000      5.04000000     63.03000000
C31     42.94000000      6.20000000     63.73000000
C32     43.02000000      6.20000000     65.26000000
C33     42.35000000      7.41000000     65.93000000
C34     26.36000000      2.45000000     51.66000000
OS35     26.72000000      3.80000000     52.17000000
C36     26.06000000      4.17000000     53.35000000
O37     25.20000000      3.36000000     53.66000000
C38     26.24000000      5.55000000     54.12000000
C39     25.98000000      6.05000000     55.62000000
C40     26.84000000      6.72000000     56.80000000
C41     27.53000000      6.41000000     58.22000000
C42     28.54000000      5.46000000     59.04000000
C43     28.55000000      4.04000000     59.82000000
C44     28.64000000      2.45000000     60.14000000
C45     29.68000000      1.55000000     60.96000000
C46     30.14000000      1.04000000     62.41000000
C47     30.69000000      1.47000000     63.86000000
C48     30.44000000      1.85000000     65.40000000
C49     30.18000000      3.21000000     66.15000000
C50     29.90000000      3.33000000     67.67000000
C51     29.88000000      4.80000000     68.13000000
C52     29.11000000      5.27000000     69.37000000
 C1     34.07000000      3.31000000     45.39000000
 C2     32.93000000      1.29000000     45.00000000
 C3     34.90000000      1.82000000     43.66000000
 N4     34.25000000      1.91000000     44.97000000
 C5     35.05000000      1.16000000     45.98000000
 C6     36.55000000      1.50000000     46.08000000
OS7     36.71000000      2.89000000     46.33000000
 P8     37.21000000      3.44000000     47.77000000
OM9     38.42000000      3.27000000     46.94000000
OM10     36.25000000      4.51000000     47.47000000
OS11     36.50000000      2.19000000     48.48000000
C12     35.34000000      2.50000000     49.23000000
C13     34.48000000      1.38000000     49.82000000
OS14     33.33000000      2.16000000     50.29000000
C15     32.29000000      2.79000000     49.64000000
O16     32.22000000      2.85000000     48.39000000
C17     31.50000000      3.67000000     50.65000000
C18     30.08000000      3.40000000     51.24000000
C19     29.64000000      3.01000000     52.71000000
C20     29.26000000      1.93000000     53.80000000
C21     28.33000000      0.75000000     54.30000000
C22     26.80000000      0.44000000     54.52000000
C23     25.48000000      0.75000000     55.31000000
C24     25.10000000      0.47000000     56.76000000
C25     24.03000000      0.95000000     57.46000000
C26     23.78000000      0.81000000     58.95000000
C27     22.77000000      1.64000000     59.79000000
C28     23.46000000      1.94000000     61.14000000
C29     23.08000000      2.58000000     62.48000000
C30     24.09000000      2.00000000     63.47000000
C31     24.16000000      2.30000000     64.97000000
C32     23.57000000      1.32000000     66.00000000
C33     24.23000000     99.95000000     66.13000000
C34     35.34000000      0.45000000     50.79000000
OS35     34.96000000     99.27000000     51.59000000
C36     35.68000000     99.05000000     52.77000000
O37     36.51000000     99.90000000     53.06000000
C38     35.21000000     98.00000000     53.83000000
C39     35.75000000     98.13000000     55.29000000
C40     35.02000000     97.39000000     56.45000000
C41     35.24000000     97.84000000     57.93000000
C42     34.00000000     97.59000000     58.86000000
C43     33.99000000     98.15000000     60.31000000
C44     32.65000000     98.63000000     60.93000000
C45     32.28000000     98.24000000     62.39000000
C46     32.96000000     99.00000000     63.53000000
C47     32.53000000     98.90000000     65.00000000
C48     33.32000000      0.00000000     65.73000000
C49     33.18000000      0.01000000     67.24000000
C50     34.56000000     99.66000000     67.77000000
C51     34.45000000     98.81000000     69.02000000
C52     34.85000000     97.37000000     68.71000000
 C1     40.98000000      3.49000000     45.50000000
 C2     39.57000000      1.95000000     44.44000000
 C3     41.96000000      1.81000000     44.05000000
 N4     40.90000000      2.09000000     45.02000000
 C5     40.96000000      1.12000000     46.14000000
 C6     42.31000000      0.97000000     46.85000000
OS7     42.54000000      2.24000000     47.41000000
 P8     43.65000000      2.61000000     48.47000000
OM9     44.46000000      2.37000000     47.25000000
OM10     42.87000000      3.85000000     48.54000000
OS11     43.10000000      1.34000000     49.30000000
C12     41.91000000      1.58000000     50.05000000
C13     41.25000000      0.61000000     51.04000000
OS14     40.10000000      1.30000000     51.66000000
C15     39.03000000      1.89000000     51.03000000
O16     38.86000000      1.82000000     49.81000000
C17     38.00000000      2.46000000     52.02000000
C18     37.12000000      3.68000000     51.66000000
C19     35.93000000      3.83000000     52.64000000
C20     34.52000000      4.36000000     52.24000000
C21     33.61000000      5.02000000     53.31000000
C22     32.75000000      4.23000000     54.31000000
C23     32.47000000      4.83000000     55.69000000
C24     32.26000000      3.99000000     56.93000000
C25     31.75000000      4.47000000     58.09000000
C26     31.61000000      3.84000000     59.46000000
C27     31.67000000      4.32000000     60.95000000
C28     30.70000000      5.15000000     61.84000000
C29     29.97000000      4.59000000     63.10000000
C30     28.62000000      3.79000000     63.05000000
C31     27.58000000      2.85000000     63.78000000
C32     27.32000000      1.33000000     63.92000000
C33     27.34000000      0.80000000     65.36000000
C34     42.35000000      0.12000000     52.04000000
OS35     42.25000000     98.81000000     52.67000000
C36     42.64000000     98.68000000     53.99000000
O37     43.15000000     99.63000000     54.57000000
C38     42.51000000     97.30000000     54.66000000
C39     42.65000000     97.30000000     56.19000000
C40     41.30000000     97.61000000     56.83000000
C41     41.14000000     97.86000000     58.33000000
C42     39.75000000     98.49000000     58.49000000
C43     39.11000000     98.37000000     59.87000000
C44     39.96000000     99.05000000     60.92000000
C45     39.25000000     99.02000000     62.26000000
C46     39.74000000      0.17000000     63.12000000
C47     39.21000000      0.08000000     64.54000000
C48     40.13000000     99.27000000     65.43000000
C49     39.77000000     99.56000000     66.88000000
C50     40.81000000     98.94000000     67.81000000
C51     40.45000000     99.27000000     69.26000000
C52     41.32000000     98.46000000     70.22000000
 C1     47.41000000      3.26000000     45.29000000
 C2     46.48000000      1.35000000     44.28000000
 C3     48.81000000      1.31000000     45.04000000
 N4     47.45000000      1.79000000     45.28000000
 C5     47.00000000      1.23000000     46.58000000
 C6     47.69000000      1.63000000     47.90000000
OS7     47.64000000      3.03000000     48.14000000
 P8     49.04000000      3.65000000     48.49000000
OM9     49.67000000      3.31000000     47.18000000
OM10     48.79000000      5.07000000     48.69000000
OS11     49.49000000      2.72000000     49.69000000
C12     48.89000000      2.99000000     50.96000000
C13     48.22000000      1.78000000     51.65000000
OS14     47.06000000      2.25000000     52.39000000
C15     45.91000000      2.49000000     51.69000000
O16     45.77000000      2.20000000     50.50000000
C17     44.77000000      2.94000000     52.58000000
C18     44.06000000      4.11000000     51.92000000
C19     42.52000000      4.05000000     51.88000000
C20     41.70000000      3.70000000     53.13000000
C21     40.44000000      4.56000000     53.28000000
C22     39.62000000      4.26000000     54.54000000
C23     39.59000000      5.31000000     55.63000000
C24     38.70000000      4.85000000     56.75000000
C25     38.28000000      5.45000000     57.88000000
C26     37.33000000      4.83000000     58.87000000
C27     36.84000000      5.37000000     60.23000000
C28     37.60000000      5.17000000     61.51000000
C29     36.83000000      4.71000000     62.74000000
C30     37.38000000      3.37000000     63.25000000
C31     37.48000000      3.14000000     64.76000000
C32     36.47000000      2.31000000     65.53000000
C33     36.89000000      2.25000000     67.00000000
C34     49.27000000      0.93000000     52.43000000
OS35     48.94000000     99.60000000     52.92000000
C36     49.60000000     99.09000000     54.02000000
O37     50.73000000     99.48000000     54.32000000
C38     48.94000000     97.84000000     54.61000000
C39     48.70000000     97.85000000     56.14000000
C40     47.43000000     97.11000000     56.61000000
C41     47.11000000     97.36000000     58.09000000
C42     45.66000000     97.79000000     58.34000000
C43     45.32000000     97.81000000     59.83000000
C44     46.18000000     98.83000000     60.57000000
C45     46.02000000     98.67000000     62.08000000
C46     46.87000000     99.67000000     62.86000000
C47     46.39000000     99.64000000     64.30000000
C48     47.51000000     99.70000000     65.32000000
C49     46.84000000     99.62000000     66.68000000
C50     45.88000000     98.43000000     66.65000000
C51     45.98000000     97.65000000     67.95000000
C52     47.43000000     97.19000000     68.12000000
 C1     53.42000000      0.95000000     45.78000000
 C2     55.29000000      1.31000000     44.41000000
 C3     53.89000000      3.18000000     45.09000000
 N4     54.50000000      1.90000000     45.48000000
 C5     55.41000000      2.11000000     46.66000000
 C6     54.90000000      2.75000000     47.97000000
OS7     53.82000000      1.96000000     48.40000000
 P8     52.44000000      2.64000000     48.67000000
OM9     52.54000000      3.80000000     47.74000000
OM10     51.71000000      1.44000000     48.21000000
OS11     52.60000000      2.90000000     50.20000000
C12     52.60000000      1.68000000     50.93000000
C13     53.93000000      1.40000000     51.63000000
OS14     54.33000000      0.03000000     51.49000000
C15     55.61000000     99.87000000     51.05000000
O16     55.99000000      0.17000000     49.91000000
C17     56.09000000     98.67000000     51.82000000
C18     54.90000000     97.94000000     52.40000000
C19     55.12000000     97.61000000     53.87000000
C20     56.31000000     96.69000000     54.03000000
C21     56.47000000     96.13000000     55.43000000
C22     57.90000000     95.63000000     55.53000000
C23     58.10000000     94.49000000     56.51000000
C24     58.58000000     94.71000000     57.91000000
C25     58.83000000     93.58000000     58.60000000
C26     59.31000000     92.89000000     59.83000000
C27     59.83000000     93.84000000     60.88000000
C28     60.52000000     93.13000000     62.04000000
C29     60.82000000     94.21000000     63.06000000
C30     61.50000000     93.72000000     64.33000000
C31     62.75000000     92.90000000     64.03000000
C32     63.82000000     93.21000000     65.07000000
C33     63.12000000     93.62000000     66.36000000
C34     53.85000000      1.92000000     53.07000000
OS35     55.09000000      2.03000000     53.80000000
C36     56.04000000      2.86000000     53.28000000
O37     55.91000000      3.45000000     52.20000000
C38     57.18000000      3.09000000     54.25000000
C39     56.69000000      2.98000000     55.69000000
C40     57.87000000      2.87000000     56.64000000
C41     57.42000000      2.76000000     58.09000000
C42     58.67000000      2.60000000     58.94000000
C43     58.48000000      3.07000000     60.37000000
C44     57.17000000      2.51000000     60.89000000
C45     57.23000000      2.52000000     62.40000000
C46     56.11000000      1.67000000     62.99000000
C47     56.34000000      1.55000000     64.50000000
C48     56.98000000      2.83000000     65.02000000
C49     56.93000000      2.96000000     66.54000000
C50     57.82000000      4.12000000     66.99000000
C51     58.29000000      3.93000000     68.43000000
C52     57.19000000      4.20000000     69.44000000
 C1     61.27000000      3.31000000     45.39000000
 C2     59.18000000      2.64000000     44.58000000
 C3     61.15000000      1.30000000     44.03000000
 N4     60.46000000      2.12000000     45.04000000
 C5     60.15000000      1.26000000     46.22000000
 C6     61.31000000      0.48000000     46.86000000
OS7     62.22000000      1.51000000     47.23000000
 P8     63.20000000      1.36000000     48.45000000
OM9     63.88000000      0.49000000     47.45000000
OM10     63.39000000      2.81000000     48.28000000
OS11     61.90000000      0.94000000     49.31000000
C12     61.15000000      1.99000000     49.95000000
C13     59.71000000      1.70000000     50.47000000
OS14     59.21000000      2.94000000     51.02000000
C15     58.54000000      3.87000000     50.30000000
O16     58.32000000      3.75000000     49.07000000
C17     58.70000000      5.13000000     51.15000000
C18     57.51000000      6.00000000     51.58000000
C19     57.73000000      6.43000000     53.04000000
C20     57.03000000      7.72000000     53.49000000
C21     56.87000000      7.81000000     55.01000000
C22     55.43000000      8.08000000     55.44000000
C23     55.07000000      7.86000000     56.90000000
C24     53.61000000      8.01000000     57.23000000
C25     53.11000000      8.40000000     58.41000000
C26     51.66000000      8.59000000     58.77000000
C27     51.45000000      9.67000000     59.85000000
C28     52.35000000      9.42000000     61.05000000
C29     52.11000000     10.36000000     62.24000000
C30     50.73000000     10.22000000     62.89000000
C31     50.85000000     10.61000000     64.36000000
C32     49.60000000     10.22000000     65.16000000
C33     49.96000000     10.03000000     66.63000000
C34     59.74000000      0.53000000     51.50000000
OS35     58.66000000      0.33000000     52.45000000
C36     58.98000000      0.14000000     53.77000000
O37     60.13000000      0.09000000     54.19000000
C38     57.82000000     99.79000000     54.67000000
C39     58.23000000     99.41000000     56.09000000
C40     57.04000000     99.25000000     57.04000000
C41     57.52000000     98.72000000     58.38000000
C42     56.50000000     99.06000000     59.46000000
C43     56.96000000     98.52000000     60.82000000
C44     58.35000000     99.05000000     61.17000000
C45     58.55000000     98.99000000     62.69000000
C46     59.74000000     99.85000000     63.09000000
C47     59.62000000      0.49000000     64.47000000
C48     59.65000000     99.45000000     65.58000000
C49     59.24000000     99.98000000     66.95000000
C50     57.83000000     99.47000000     67.26000000
C51     57.32000000     99.93000000     68.62000000
C52     58.20000000     99.36000000     69.74000000
 C1     67.10000000      3.35000000     45.52000000
 C2     65.56000000      1.72000000     44.74000000
 C3     67.97000000      1.35000000     44.47000000
 N4     66.90000000      1.90000000     45.30000000
 C5     66.84000000      1.15000000     46.58000000
 C6     68.14000000      1.03000000     47.38000000
OS7     68.47000000      2.36000000     47.74000000
 P8     69.66000000      2.71000000     48.71000000
OM9     70.49000000      2.10000000     47.63000000
OM10     69.17000000      4.09000000     48.50000000
OS11     68.92000000      1.74000000     49.77000000
C12     67.72000000      2.04000000     50.53000000
C13     66.98000000      0.80000000     51.13000000
OS14     65.74000000      1.01000000     51.88000000
C15     64.61000000      0.31000000     51.53000000
O16     64.60000000     99.85000000     50.39000000
C17     63.31000000      0.38000000     52.39000000
C18     62.61000000      1.31000000     53.45000000
C19     61.76000000      2.62000000     53.33000000
C20     61.45000000      3.33000000     54.67000000
C21     60.64000000      4.65000000     54.67000000
C22     60.49000000      5.17000000     56.12000000
C23     59.32000000      6.10000000     56.45000000
C24     59.16000000      6.46000000     57.91000000
C25     58.23000000      6.40000000     58.89000000
C26     56.80000000      5.94000000     59.02000000
C27     56.04000000      6.46000000     60.25000000
C28     56.87000000      6.30000000     61.52000000
C29     56.02000000      6.37000000     62.78000000
C30     54.94000000      5.30000000     62.71000000
C31     54.43000000      4.83000000     64.07000000
C32     53.44000000      3.67000000     63.85000000
C33     53.22000000      2.78000000     65.08000000
C34     68.08000000      0.19000000     51.99000000
OS35     67.77000000     98.95000000     52.64000000
C36     68.09000000     99.06000000     53.95000000
O37     68.73000000      0.02000000     54.35000000
C38     68.07000000     97.74000000     54.68000000
C39     68.21000000     98.07000000     56.15000000
C40     66.91000000     98.77000000     56.53000000
C41     66.75000000     98.92000000     58.03000000
C42     65.32000000     99.32000000     58.32000000
C43     65.00000000     98.91000000     59.74000000
C44     65.93000000     99.66000000     60.67000000