23400
Energy = 385085.38624836 au
 C1      1.36000000      3.34000000     46.29000000
 C2      0.86000000      2.01000000     44.38000000
 C3      3.19000000      2.39000000     45.05000000
 N4      1.80000000      2.17000000     45.48000000
 C5      1.71000000      0.92000000     46.28000000
 C6      2.66000000      0.71000000     47.47000000
OS7      2.42000000      1.75000000     48.37000000
 P8      3.30000000      1.79000000     49.66000000
OM9      4.58000000      1.82000000     48.95000000
OM10      2.43000000      2.78000000     50.25000000
OS11      3.00000000      0.34000000     50.08000000
C12      2.03000000      0.20000000     51.09000000
C13      1.56000000     98.76000000     50.93000000
OS14      0.19000000     98.60000000     51.46000000
C15     99.12000000     98.96000000     50.64000000
O16     99.33000000     99.11000000     49.43000000
C17     97.71000000     98.80000000     51.24000000
C18     96.67000000     98.22000000     50.24000000
C19     95.14000000     98.52000000     50.37000000
C20     94.11000000     97.78000000     51.28000000
C21     92.68000000     98.43000000     51.20000000
C22     91.26000000     98.09000000     51.77000000
C23     90.83000000     98.05000000     53.27000000
C24     89.81000000     97.09000000     53.91000000
C25     89.75000000     96.04000000     54.79000000
C26     89.64000000     94.88000000     55.77000000
C27     88.26000000     94.29000000     56.14000000
C28     88.04000000     94.21000000     57.67000000
C29     86.91000000     93.45000000     58.44000000
C30     86.92000000     91.91000000     58.58000000
C31     87.45000000     91.04000000     59.74000000
C32     87.57000000     89.52000000     59.52000000
C33     88.61000000     88.76000000     60.34000000
C34      2.86000000     97.90000000     51.17000000
OS35      2.99000000     96.50000000     50.72000000
C36      3.89000000     95.69000000     51.40000000
O37      4.61000000     96.25000000     52.20000000
C38      3.89000000     94.13000000     51.27000000
C39      3.05000000     92.98000000     51.96000000
C40      2.43000000     92.51000000     53.34000000
C41      0.97000000     92.60000000     54.00000000
C42     99.85000000     93.51000000     54.72000000
C43     98.60000000     93.51000000     55.68000000
C44     98.47000000     93.74000000     57.23000000
C45     98.20000000     92.72000000     58.40000000
C46     98.93000000     92.76000000     59.78000000
C47     98.66000000     91.81000000     60.98000000
C48     99.03000000     90.30000000     60.97000000
C49     98.78000000     89.51000000     62.28000000
C50     98.81000000     87.98000000     62.10000000
C51     99.72000000     87.02000000     62.88000000
C52     99.65000000     87.03000000     64.41000000
 C1      6.98000000      1.73000000     45.38000000
 C2      8.83000000      0.44000000     44.68000000
 C3      8.98000000      2.88000000     44.65000000
 N4      8.45000000      1.69000000     45.33000000
 C5      8.99000000      1.59000000     46.71000000
 C6      8.93000000      2.85000000     47.58000000
OS7      7.58000000      3.30000000     47.62000000
 P8      7.14000000      4.25000000     48.81000000
OM9      8.09000000      5.22000000     48.19000000
OM10      5.78000000      4.21000000     48.28000000
OS11      7.79000000      3.20000000     49.85000000
C12      7.20000000      2.14000000     50.64000000
C13      8.12000000      1.09000000     51.38000000
OS14      7.17000000      0.07000000     51.54000000
C15      7.78000000     98.89000000     51.56000000
O16      8.43000000     98.48000000     50.59000000
C17      7.22000000     98.20000000     52.77000000
C18      7.45000000     96.75000000     52.56000000
C19      7.26000000     95.99000000     53.85000000
C20      8.36000000     96.50000000     54.77000000
C21      8.36000000     95.81000000     56.13000000
C22      9.15000000     94.50000000     56.13000000
C23      9.32000000     93.89000000     57.54000000
C24      9.90000000     92.49000000     57.71000000
C25     10.42000000     91.23000000     57.81000000
C26     10.81000000     90.09000000     58.77000000
C27     11.04000000     89.71000000     60.28000000
C28     10.36000000     89.62000000     61.69000000
C29      9.25000000     88.73000000     62.31000000
C30      8.16000000     89.41000000     63.14000000
C31      7.97000000     88.76000000     64.51000000
C32      9.23000000     89.01000000     65.32000000
C33      8.92000000     89.13000000     66.81000000
C34      8.78000000      1.21000000     52.81000000
OS35     10.20000000      1.07000000     53.12000000
C36     10.75000000      1.64000000     54.26000000
O37     10.29000000      2.62000000     54.84000000
C38     12.23000000      1.30000000     54.31000000
C39     12.74000000      1.43000000     55.74000000
C40     12.01000000      0.37000000     56.54000000
C41     12.14000000      0.57000000     58.04000000
C42     10.77000000      0.20000000     58.60000000
C43     10.70000000      0.39000000     60.11000000
C44      9.45000000     99.82000000     60.80000000
C45      9.84000000     99.26000000     62.18000000
C46      8.78000000     99.14000000     63.28000000
C47      9.26000000     98.54000000     64.63000000
C48     10.29000000     99.37000000     65.42000000
C49     10.13000000     99.48000000     66.95000000
C50     11.14000000      0.49000000     67.52000000
C51     11.29000000      0.54000000     69.05000000
C52     12.65000000      1.16000000     69.41000000
 C1     14.97000000      3.37000000     45.31000000
 C2     13.58000000      1.63000000     44.46000000
 C3     15.99000000      1.31000000     44.56000000
 N4     14.81000000      1.91000000     45.20000000
 C5     14.61000000      1.28000000     46.54000000
 C6     15.85000000      1.18000000     47.44000000
OS7     16.29000000      2.52000000     47.59000000
 P8     17.58000000      2.96000000     48.38000000
OM9     18.39000000      2.21000000     47.38000000
OM10     16.96000000      4.19000000     47.80000000
OS11     17.02000000      2.00000000     49.54000000
C12     16.26000000      2.47000000     50.67000000
C13     15.15000000      1.53000000     51.19000000
OS14     13.85000000      2.18000000     51.36000000
C15     12.82000000      2.18000000     50.46000000
O16     12.92000000      1.88000000     49.25000000
C17     11.60000000      2.82000000     51.13000000
C18     10.51000000      3.87000000     50.86000000
C19      9.82000000      4.17000000     52.24000000
C20      8.31000000      4.38000000     52.59000000
C21      7.34000000      4.41000000     53.80000000
C22      6.91000000      3.21000000     54.67000000
C23      5.54000000      3.42000000     55.34000000
C24      5.12000000      2.50000000     56.46000000
C25      4.10000000      2.71000000     57.32000000
C26      3.73000000      1.83000000     58.47000000
C27      3.29000000      2.62000000     59.70000000
C28      3.85000000      2.01000000     60.99000000
C29      3.44000000      2.83000000     62.21000000
C30      3.13000000      1.94000000     63.40000000
C31      2.69000000      2.80000000     64.58000000
C32      2.22000000      1.96000000     65.76000000
C33      3.41000000      1.26000000     66.40000000
C34     15.78000000      0.88000000     52.44000000
OS35     14.99000000     99.84000000     53.01000000
C36     15.70000000     98.97000000     53.77000000
O37     16.93000000     98.95000000     53.70000000
C38     14.75000000     97.93000000     54.36000000
C39     14.95000000     97.70000000     55.87000000
C40     13.67000000     97.29000000     56.62000000
C41     13.89000000     97.18000000     58.14000000
C42     12.65000000     96.99000000     59.04000000
C43     12.91000000     97.04000000     60.57000000
C44     13.20000000     98.45000000     61.11000000
C45     13.15000000     98.72000000     62.63000000
C46     13.46000000      0.18000000     63.00000000
C47     13.50000000      0.44000000     64.52000000
C48     14.73000000     99.93000000     65.28000000
C49     14.47000000     99.55000000     66.74000000
C50     13.92000000     98.12000000     66.90000000
C51     13.53000000     97.73000000     68.33000000
C52     14.64000000     97.96000000     69.35000000
 C1     22.09000000      3.39000000     45.20000000
 C2     19.96000000      2.48000000     44.70000000
 C3     21.98000000      1.26000000     44.04000000
 N4     21.34000000      2.13000000     45.03000000
 C5     21.23000000      1.38000000     46.30000000
 C6     22.53000000      0.85000000     46.90000000
OS7     23.24000000      2.00000000     47.32000000
 P8     24.26000000      1.89000000     48.53000000
OM9     25.07000000      1.20000000     47.48000000
OM10     24.15000000      3.35000000     48.54000000
OS11     23.12000000      1.07000000     49.33000000
C12     22.24000000      1.84000000     50.17000000
C13     21.00000000      1.18000000     50.82000000
OS14     20.53000000      2.09000000     51.84000000
C15     19.98000000      3.28000000     51.51000000
O16     19.42000000      3.47000000     50.42000000
C17     20.48000000      4.33000000     52.48000000
C18     19.44000000      5.19000000     53.17000000
C19     19.82000000      6.31000000     54.15000000
C20     18.68000000      7.26000000     54.58000000
C21     18.12000000      7.03000000     56.00000000
C22     16.67000000      7.23000000     56.52000000
C23     15.84000000      8.51000000     56.65000000
C24     14.52000000      8.26000000     57.34000000
C25     14.29000000      8.31000000     58.67000000
C26     13.01000000      8.08000000     59.41000000
C27     13.03000000      8.15000000     60.96000000
C28     13.44000000      9.38000000     61.78000000
C29     13.42000000      9.19000000     63.32000000
C30     12.48000000     10.03000000     64.22000000
C31     12.56000000      9.69000000     65.72000000
C32     11.47000000     10.33000000     66.58000000
C33     10.58000000      9.31000000     67.28000000
C34     21.38000000     99.80000000     51.42000000
OS35     20.44000000     99.12000000     52.29000000
C36     20.98000000     98.83000000     53.51000000
O37     22.18000000     98.95000000     53.69000000
C38     20.12000000     98.27000000     54.62000000
C39     21.04000000     98.16000000     55.86000000
C40     20.27000000     97.92000000     57.16000000
C41     21.06000000     98.26000000     58.43000000
C42     20.73000000     99.65000000     58.98000000
C43     20.61000000     99.63000000     60.50000000
C44     20.19000000      0.98000000     61.10000000
C45     19.97000000      0.80000000     62.61000000
C46     19.37000000      2.01000000     63.31000000
C47     19.00000000      1.62000000     64.74000000
C48     20.17000000      0.89000000     65.40000000
C49     19.90000000      0.66000000     66.88000000
C50     18.74000000     99.69000000     67.09000000
C51     18.18000000     99.80000000     68.51000000
C52     19.19000000     99.36000000     69.57000000
 C1     27.26000000      3.18000000     45.29000000
 C2     26.79000000      1.04000000     44.41000000
 C3     29.10000000      1.90000000     44.35000000
 N4     27.82000000      1.82000000     45.08000000
 C5     28.03000000      1.10000000     46.36000000
 C6     29.17000000      1.59000000     47.23000000
OS7     28.83000000      2.94000000     47.52000000
 P8     29.79000000      3.85000000     48.38000000
OM9     30.71000000      3.65000000     47.22000000
OM10     28.77000000      4.91000000     48.27000000
OS11     29.53000000      2.73000000     49.50000000
C12     28.27000000      2.74000000     50.19000000
C13     28.08000000      1.74000000     51.34000000
OS14     27.01000000      2.24000000     52.17000000
C15     25.78000000      1.83000000     51.80000000
O16     25.63000000      1.10000000     50.83000000
C17     24.71000000      2.62000000     52.52000000
C18     23.83000000      1.64000000     53.30000000
C19     22.66000000      2.29000000     54.02000000
C20     21.97000000      1.67000000     55.23000000
C21     20.51000000      2.10000000     55.13000000
C22     19.68000000      1.60000000     56.29000000
C23     18.29000000      1.19000000     55.83000000
C24     17.75000000      0.30000000     56.89000000
C25     16.85000000      0.19000000     57.85000000
C26     16.92000000     98.92000000     58.62000000
C27     16.31000000     98.84000000     60.01000000
C28     16.98000000     99.70000000     61.05000000
C29     16.64000000     99.21000000     62.46000000
C30     17.02000000     97.77000000     62.80000000
C31     15.87000000     96.81000000     63.15000000
C32     16.27000000     95.99000000     64.36000000
C33     16.73000000     97.01000000     65.39000000
C34     29.39000000      1.63000000     52.13000000
OS35     29.37000000      0.59000000     53.10000000
C36     30.48000000      0.48000000     53.86000000
O37     31.51000000      1.14000000     53.83000000
C38     30.20000000     99.35000000     54.78000000
C39     29.36000000     99.78000000     55.96000000
C40     28.60000000     98.53000000     56.39000000
C41     28.69000000     98.35000000     57.88000000
C42     27.89000000     99.38000000     58.65000000
C43     28.34000000     99.18000000     60.08000000
C44     27.43000000     99.88000000     61.06000000
C45     28.18000000      0.05000000     62.38000000
C46     27.20000000      0.50000000     63.46000000
C47     27.90000000      1.09000000     64.67000000
C48     28.68000000     99.98000000     65.34000000
C49     28.18000000     99.67000000     66.75000000
C50     28.84000000     98.37000000     67.19000000
C51     28.14000000     97.75000000     68.39000000
C52     28.45000000     98.51000000     69.69000000
 C1     35.17000000      3.36000000     45.25000000
 C2     33.30000000      2.14000000     44.47000000
 C3     35.45000000      1.01000000     44.95000000
 N4     34.49000000      2.06000000     45.31000000
 C5     33.97000000      1.77000000     46.68000000
 C6     34.95000000      1.84000000     47.85000000
OS7     35.35000000      3.19000000     48.05000000
 P8     36.76000000      3.31000000     48.68000000
OM9     37.42000000      2.85000000     47.42000000
OM10     37.11000000      4.67000000     49.03000000
OS11     36.46000000      2.40000000     49.94000000
C12     35.72000000      3.01000000     51.01000000
C13     34.63000000      2.11000000     51.62000000
OS14     33.71000000      2.94000000     52.36000000
C15     32.62000000      3.29000000     51.63000000
O16     32.35000000      2.72000000     50.56000000
C17     31.73000000      4.28000000     52.35000000
C18     30.68000000      4.85000000     51.39000000
C19     29.39000000      5.64000000     51.73000000
C20     28.25000000      5.07000000     52.61000000
C21     27.16000000      6.06000000     53.07000000
C22     26.90000000      6.09000000     54.59000000
C23     26.91000000      7.43000000     55.36000000
C24     26.25000000      7.23000000     56.69000000
C25     25.53000000      7.91000000     57.59000000
C26     24.98000000      7.13000000     58.75000000
C27     24.04000000      7.75000000     59.78000000
C28     24.90000000      8.47000000     60.80000000
C29     24.23000000      9.07000000     62.03000000
C30     23.55000000      8.15000000     63.04000000
C31     23.17000000      9.06000000     64.21000000
C32     22.60000000      8.32000000     65.41000000
C33     23.66000000      8.02000000     66.47000000
C34     35.28000000      0.92000000     52.35000000
OS35     34.46000000     99.85000000     52.83000000
C36     35.03000000     99.12000000     53.83000000
O37     36.24000000     98.96000000     53.93000000
C38     34.04000000     98.23000000     54.52000000
C39     34.12000000     98.44000000     56.03000000
C40     33.40000000     99.71000000     56.47000000
C41     33.19000000     99.67000000     57.97000000
C42     32.08000000      0.64000000     58.37000000
C43     31.62000000      0.37000000     59.80000000
C44     32.31000000      1.25000000     60.83000000
C45     31.54000000      1.14000000     62.15000000
C46     32.14000000      2.05000000     63.21000000
C47     31.45000000      1.97000000     64.58000000
C48     32.31000000      1.31000000     65.65000000
C49     31.72000000      1.22000000     67.05000000
C50     32.49000000      0.17000000     67.84000000
C51     31.96000000      0.04000000     69.27000000
C52     33.05000000     99.53000000     70.20000000
 C1     41.20000000      0.46000000     44.75000000
 C2     42.54000000      2.43000000     44.53000000
 C3     40.10000000      2.62000000     44.60000000
 N4     41.29000000      1.89000000     45.06000000
 C5     41.38000000      2.09000000     46.52000000
 C6     40.16000000      1.65000000     47.33000000
OS7     39.92000000      0.26000000     47.25000000
 P8     38.71000000     99.73000000     48.10000000
OM9     37.77000000     99.83000000     46.95000000
OM10     39.26000000     98.43000000     48.44000000
OS11     38.50000000      0.89000000     49.18000000
C12     39.06000000      0.98000000     50.50000000
C13     39.99000000      2.20000000     50.78000000
OS14     41.33000000      1.44000000     50.76000000
C15     42.33000000      0.66000000     50.05000000
O16     42.60000000      0.91000000     48.87000000
C17     43.25000000     99.58000000     50.79000000
C18     44.83000000     99.57000000     51.01000000
C19     45.79000000     99.50000000     52.31000000
C20     46.43000000      0.23000000     53.60000000
C21     47.69000000      0.90000000     54.34000000
C22     49.12000000      1.18000000     55.03000000
C23     49.95000000      0.78000000     56.31000000
C24     51.32000000      1.42000000     56.64000000
C25     52.25000000      1.56000000     57.65000000
C26     53.29000000      1.70000000     58.79000000
C27     53.36000000      1.08000000     60.24000000
C28     54.27000000     99.86000000     60.60000000
C29     54.17000000     99.32000000     62.04000000
C30     54.02000000      0.60000000     62.86000000
C31     54.30000000      0.61000000     64.36000000
C32     54.28000000      2.08000000     64.77000000
C33     54.54000000      2.33000000     66.25000000
C34     39.15000000      3.34000000     51.67000000
OS35     38.77000000      4.14000000     52.97000000
C36     38.06000000      4.94000000     54.01000000
O37     36.86000000      5.04000000     53.82000000
C38     38.66000000      5.61000000     55.40000000
C39     38.81000000      6.85000000     56.48000000
C40     39.86000000      7.60000000     57.53000000
C41     40.77000000      7.99000000     58.86000000
C42     41.98000000      7.58000000     59.90000000
C43     42.65000000      6.34000000     60.72000000
C44     43.03000000      5.69000000     62.14000000
C45     43.99000000      4.44000000     62.48000000
C46     44.66000000      3.91000000     63.82000000
C47     44.75000000      2.83000000     65.00000000
C48     44.09000000      2.47000000     66.39000000
C49     44.03000000      2.96000000     67.86000000
C50     43.21000000      4.08000000     68.56000000
C51     43.56000000      5.55000000     68.26000000
C52     42.72000000      6.54000000     69.09000000
 C1     47.61000000      3.39000000     45.19000000
 C2     46.13000000      1.62000000     44.60000000
 C3     48.48000000      1.46000000     44.00000000
 N4     47.50000000      1.92000000     44.99000000
 C5     47.71000000      1.17000000     46.26000000
 C6     49.15000000      1.12000000     46.77000000
OS7     49.47000000      2.48000000     46.99000000
 P8     50.48000000      3.10000000     48.05000000
OM9     51.30000000      2.68000000     46.89000000
OM10     49.58000000      4.26000000     47.88000000
OS11     49.90000000      1.98000000     49.01000000
C12     48.78000000      2.43000000     49.76000000
C13     48.05000000      1.37000000     50.56000000
OS14     47.06000000      2.08000000     51.39000000
C15     45.86000000      2.69000000     51.05000000
O16     45.52000000      2.86000000     49.87000000
C17     45.00000000      2.94000000     52.34000000
C18     43.66000000      2.16000000     52.58000000
C19     42.72000000      1.33000000     53.55000000
C20     41.26000000      0.65000000     53.56000000
C21     39.69000000      0.91000000     53.80000000
C22     38.27000000      1.25000000     54.47000000
C23     37.03000000      2.02000000     55.12000000
C24     36.69000000      2.77000000     56.43000000
C25     35.79000000      3.66000000     56.98000000
C26     35.79000000      4.21000000     58.41000000
C27     34.55000000      4.69000000     59.20000000
C28     34.83000000      5.55000000     60.46000000
C29     35.41000000      4.88000000     61.72000000
C30     34.43000000      4.66000000     62.89000000
C31     35.18000000      4.14000000     64.13000000
C32     34.44000000      4.03000000     65.47000000
C33     35.15000000      3.11000000     66.47000000
C34     49.13000000      0.41000000     51.23000000
OS35     48.73000000     99.11000000     51.80000000
C36     49.37000000     98.51000000     52.88000000
O37     50.53000000     98.78000000     53.18000000
C38     48.45000000     97.57000000     53.74000000
C39     48.43000000     97.81000000     55.28000000
C40     47.40000000     97.16000000     56.23000000
C41     47.32000000     97.56000000     57.73000000
C42     45.89000000     97.41000000     58.35000000
C43     45.49000000     97.52000000     59.84000000
C44     46.13000000     98.57000000     60.76000000
C45     45.72000000     98.35000000     62.22000000
C46     46.44000000     99.29000000     63.18000000
C47     45.94000000     99.19000000     64.62000000
C48     46.93000000     99.87000000     65.57000000
C49     46.47000000     99.79000000     67.03000000
C50     45.94000000     98.38000000     67.26000000
C51     45.81000000     98.04000000     68.74000000
C52     47.15000000     98.12000000     69.46000000
 C1     54.24000000      3.38000000     45.36000000
 C2     52.97000000      1.53000000     44.66000000
 C3     55.41000000      1.29000000     44.92000000
 N4     54.17000000      1.91000000     45.40000000
 C5     53.94000000      1.44000000     46.79000000
 C6     54.99000000      1.70000000     47.87000000
OS7     55.24000000      3.08000000     47.92000000
 P8     56.40000000      3.60000000     48.82000000
OM9     57.43000000      3.40000000     47.76000000
OM10     55.79000000      4.90000000     48.82000000
OS11     56.14000000      2.64000000     50.07000000
C12     55.23000000      3.12000000     51.07000000
C13     54.38000000      2.05000000     51.81000000
OS14     53.29000000      2.69000000     52.50000000
C15     52.16000000      2.72000000     51.78000000
O16     52.11000000      2.34000000     50.61000000
C17     50.99000000      3.26000000     52.58000000
C18     50.33000000      4.45000000     51.90000000
C19     48.82000000      4.59000000     52.23000000
C20     48.35000000      4.05000000     53.58000000
C21     47.31000000      4.75000000     54.50000000
C22     46.58000000      3.78000000     55.46000000
C23     46.18000000      4.20000000     56.88000000
C24     45.00000000      3.46000000     57.53000000
C25     44.40000000      3.30000000     58.74000000
C26     43.22000000      2.39000000     59.09000000
C27     42.37000000      2.81000000     60.32000000
C28     40.95000000      2.42000000     60.79000000
C29     40.25000000      3.43000000     61.74000000
C30     38.97000000      3.03000000     62.50000000
C31     38.52000000      3.65000000     63.85000000
C32     38.12000000      2.85000000     65.12000000
C33     38.93000000      2.18000000     66.24000000
C34     55.23000000      1.17000000     52.75000000
OS35     54.70000000     99.89000000     53.16000000
C36     55.29000000     99.38000000     54.27000000
O37     56.38000000     99.78000000     54.68000000
C38     54.70000000     98.04000000     54.67000000
C39     54.66000000     97.81000000     56.19000000
C40     53.42000000     98.51000000     56.75000000
C41     53.03000000     98.14000000     58.20000000
C42     51.57000000     98.49000000     58.62000000
C43     51.17000000     98.23000000     60.08000000
C44     50.56000000     99.42000000     60.83000000
C45     50.50000000     99.21000000     62.36000000
C46     50.78000000      0.43000000     63.25000000
C47     50.60000000      0.29000000     64.78000000
C48     51.54000000     99.34000000     65.51000000
C49     51.82000000     99.73000000     66.97000000
C50     53.02000000     98.94000000     67.51000000
C51     53.28000000     99.19000000     69.00000000
C52     54.22000000     98.13000000     69.58000000
 C1     60.72000000      0.34000000     45.29000000
 C2     62.20000000      2.09000000     44.69000000
 C3     59.76000000      2.50000000     44.82000000
 N4     60.93000000      1.79000000     45.35000000
 C5     61.13000000      2.22000000     46.75000000
 C6     60.07000000      1.93000000     47.81000000
OS7     59.86000000      0.54000000     47.97000000
 P8     58.43000000      0.22000000     48.54000000
OM9     57.72000000      0.57000000     47.27000000
OM10     58.39000000     98.83000000     48.94000000
OS11     58.44000000      1.23000000     49.75000000
C12     59.11000000      0.69000000     50.89000000
C13     59.65000000      1.74000000     51.87000000
OS14     60.89000000      1.18000000     52.51000000
C15     62.13000000      0.92000000     51.91000000
O16     62.40000000      1.35000000     50.78000000
C17     63.26000000      0.46000000     52.88000000
C18     63.85000000     99.04000000     52.68000000
C19     65.35000000     98.69000000     52.88000000
C20     66.07000000     98.82000000     54.24000000
C21     67.35000000     97.96000000     54.34000000
C22     68.57000000     98.54000000     55.10000000
C23     68.69000000     98.50000000     56.65000000
C24     69.78000000     99.38000000     57.27000000
C25     70.34000000     99.42000000     58.50000000
C26     71.50000000      0.18000000     59.10000000
C27     72.55000000     99.27000000     59.74000000
C28     73.16000000     99.92000000     60.98000000
C29     73.18000000     98.97000000     62.18000000
C30     73.62000000     99.77000000     63.40000000
C31     73.95000000     98.97000000     64.65000000
C32     74.50000000     99.85000000     65.78000000
C33     73.46000000      0.39000000     66.76000000
C34     58.39000000      2.43000000     52.58000000
OS35     58.30000000      3.64000000     53.47000000
C36     57.39000000      4.26000000     54.37000000
O37     56.18000000      4.23000000     54.13000000
C38     58.03000000      5.31000000     55.38000000
C39     58.20000000      5.65000000     56.92000000
C40     59.32000000      6.65000000     57.44000000
C41     60.14000000      7.28000000     58.65000000
C42     61.49000000      6.78000000     59.30000000
C43     61.81000000      6.62000000     60.83000000
C44     62.43000000      5.36000000     61.53000000
C45     62.47000000      5.27000000     63.09000000
C46     63.05000000      3.93000000     63.58000000
C47     63.03000000      2.96000000     64.80000000
C48     62.73000000      3.44000000     66.20000000
C49     63.88000000      4.17000000     66.86000000
C50     63.45000000      5.61000000     67.13000000
C51     63.78000000      5.98000000     68.58000000
C52     63.19000000      7.33000000     68.93000000
 C1     67.21000000      0.40000000     45.48000000
 C2     68.89000000      1.89000000     44.71000000
 C3     66.54000000      2.53000000     44.56000000
 N4     67.57000000      1.83000000     45.33000000
 C5     67.75000000      2.46000000     46.67000000
 C6     66.48000000      2.73000000     47.50000000
OS7     65.81000000      1.48000000     47.66000000
 P8     64.55000000      1.31000000     48.61000000
OM9     63.91000000      2.11000000     47.53000000
OM10     64.79000000     99.87000000     48.47000000
OS11     65.36000000      2.07000000     49.74000000
C12     66.13000000      1.17000000     50.53000000
C13     67.25000000      1.80000000     51.36000000
OS14     68.15000000      0.70000000     51.85000000
C15     69.16000000      0.10000000     51.10000000
O16     69.49000000      0.65000000     50.04000000
C17     69.95000000     98.90000000     51.77000000
C18     71.00000000     97.88000000     51.16000000
C19     72.05000000     97.03000000     52.03000000
C20     73.64000000     97.16000000     52.19000000
C21     74.80000000     97.08000000     53.29000000
C22     75.11000000     97.93000000     54.60000000
C23     76.33000000     98.30000000     55.52000000
C24     76.22000000     98.95000000     56.90000000
C25     77.04000000     98.69000000     57.96000000
C26     77.11000000     99.05000000     59.44000000
C27     77.69000000     97.86000000     60.25000000
C28     77.86000000     97.76000000     61.79000000
C29     79.11000000     96.93000000     62.17000000
C30     79.74000000     97.17000000     63.57000000
C31     81.23000000     97.52000000     63.85000000
C32     82.11000000     98.80000000     63.76000000
C33     82.11000000     99.88000000     64.85000000
C34     66.51000000      2.89000000     52.25000000
OS35     67.09000000      4.13000000     52.82000000
C36     66.73000000      4.47000000     54.12000000
O37     65.86000000      3.78000000     54.61000000
C38     67.48000000      5.57000000     54.95000000
C39     67.96000000      5.37000000     56.44000000
C40     68.97000000      6.13000000     57.43000000
C41     69.97000000      6.89000000     58.42000000
C42     71.41000000      6.56000000     59.01000000
C43     71.96000000      6.06000000     60.42000000
C44     72.44000000      4.62000000     60.88000000