23400
Energy = 347830.96882874 au
 C1      0.83000000      0.95000000     45.47000000
 C2      3.06000000      1.08000000     44.73000000
 C3      1.64000000      3.08000000     44.72000000
 N4      2.01000000      1.84000000     45.41000000
 C5      2.54000000      2.15000000     46.77000000
 C6      1.68000000      3.03000000     47.70000000
OS7      0.50000000      2.30000000     47.89000000
 P8     99.18000000      2.97000000     48.33000000
OM9     99.21000000      3.94000000     47.21000000
OM10     98.55000000      1.66000000     48.20000000
OS11     99.76000000      3.34000000     49.74000000
C12     99.76000000      2.22000000     50.62000000
C13      1.18000000      1.90000000     51.07000000
OS14      1.32000000      0.49000000     51.46000000
C15      1.80000000     99.53000000     50.59000000
O16      2.24000000     99.81000000     49.47000000
C17      2.06000000     98.21000000     51.35000000
C18      3.48000000     97.59000000     51.22000000
C19      4.22000000     96.97000000     52.43000000
C20      4.91000000     97.40000000     53.75000000
C21      4.73000000     96.60000000     55.08000000
C22      5.53000000     96.67000000     56.42000000
C23      6.44000000     95.46000000     56.71000000
C24      7.60000000     94.88000000     57.52000000
C25      7.78000000     93.65000000     58.01000000
C26      8.85000000     92.90000000     58.74000000
C27      8.66000000     91.60000000     59.52000000
C28      8.09000000     91.89000000     60.89000000
C29      8.87000000     91.27000000     62.02000000
C30      9.80000000     92.12000000     62.88000000
C31      9.21000000     91.82000000     64.24000000
C32      9.92000000     92.02000000     65.56000000
C33      8.96000000     92.40000000     66.68000000
C34      1.55000000      3.12000000     51.98000000
OS35      2.82000000      3.18000000     52.68000000
C36      2.73000000      3.79000000     53.89000000
O37      1.81000000      4.58000000     53.93000000
C38      3.70000000      3.50000000     55.10000000
C39      5.14000000      2.97000000     55.41000000
C40      6.43000000      3.15000000     56.35000000
C41      7.28000000      3.31000000     57.66000000
C42      7.09000000      2.35000000     58.85000000
C43      6.83000000      2.96000000     60.24000000
C44      6.33000000      1.90000000     61.23000000
C45      5.52000000      2.38000000     62.45000000
C46      4.90000000      1.42000000     63.52000000
C47      3.89000000      1.29000000     64.72000000
C48      3.60000000      1.88000000     66.15000000
C49      4.45000000      1.72000000     67.42000000
C50      4.90000000      3.01000000     68.11000000
C51      6.28000000      2.80000000     68.74000000
C52      7.17000000      4.05000000     68.76000000
 C1      7.63000000      3.15000000     45.04000000
 C2      7.17000000      0.85000000     44.83000000
 C3      9.11000000      1.79000000     43.66000000
 N4      8.26000000      1.83000000     44.85000000
 C5      9.11000000      1.44000000     46.00000000
 C6     10.29000000      2.37000000     46.38000000
OS7      9.79000000      3.63000000     46.76000000
 P8      9.80000000      3.97000000     48.34000000
OM9     11.26000000      4.01000000     48.14000000
OM10      8.97000000      5.08000000     47.88000000
OS11      9.19000000      2.47000000     48.64000000
C12      8.14000000      1.97000000     49.50000000
C13      7.76000000      0.56000000     50.12000000
OS14      6.67000000      1.14000000     50.80000000
C15      5.51000000      0.89000000     50.23000000
O16      5.45000000      0.54000000     49.03000000
C17      4.90000000      0.30000000     51.45000000
C18      4.46000000      1.02000000     52.70000000
C19      3.46000000      0.21000000     53.55000000
C20      2.53000000      0.31000000     54.77000000
C21      1.13000000      0.85000000     54.52000000
C22      0.07000000     99.84000000     54.90000000
C23      0.22000000     99.71000000     56.40000000
C24     99.35000000     98.78000000     57.19000000
C25     98.09000000     98.71000000     57.61000000
C26     97.62000000     97.61000000     58.52000000
C27     96.45000000     97.98000000     59.45000000
C28     96.74000000     98.50000000     60.86000000
C29     97.68000000     97.58000000     61.65000000
C30     97.14000000     97.06000000     62.98000000
C31     96.85000000     98.16000000     64.00000000
C32     96.53000000     97.66000000     65.41000000
C33     97.76000000     97.26000000     66.22000000
C34      8.49000000     99.54000000     51.12000000
OS35      7.94000000     98.63000000     52.19000000
C36      8.56000000     97.91000000     53.26000000
O37      9.72000000     97.75000000     53.49000000
C38      8.04000000     97.19000000     54.42000000
C39      9.15000000     97.20000000     55.50000000
C40      8.93000000     98.27000000     56.58000000
C41      8.67000000     97.75000000     57.99000000
C42      7.71000000     98.44000000     58.94000000
C43      7.93000000     97.80000000     60.30000000
C44      7.25000000     98.64000000     61.36000000
C45      7.85000000     98.38000000     62.74000000
C46      7.35000000     99.48000000     63.64000000
C47      7.41000000      0.01000000     65.08000000
C48      7.48000000      0.53000000     66.51000000
C49      8.19000000     99.85000000     67.67000000
C50      7.71000000     98.43000000     67.89000000
C51      7.95000000     98.05000000     69.34000000
C52      9.39000000     98.35000000     69.76000000
 C1     14.29000000      3.44000000     45.17000000
 C2     13.32000000      1.36000000     44.46000000
 C3     15.59000000      1.88000000     43.78000000
 N4     14.56000000      2.03000000     44.83000000
 C5     14.97000000      1.33000000     46.06000000
 C6     16.39000000      1.66000000     46.47000000
OS7     16.47000000      2.95000000     47.03000000
 P8     17.46000000      2.95000000     48.29000000
OM9     18.54000000      2.67000000     47.29000000
OM10     17.18000000      4.34000000     48.60000000
OS11     16.73000000      1.60000000     48.90000000
C12     15.96000000      1.37000000     50.11000000
C13     14.85000000      0.28000000     50.32000000
OS14     13.47000000      0.82000000     50.55000000
C15     12.45000000      1.40000000     49.79000000
O16     12.37000000      1.10000000     48.59000000
C17     11.23000000      2.01000000     50.60000000
C18     10.66000000      3.05000000     51.66000000
C19      9.19000000      3.34000000     52.16000000
C20      8.32000000      2.89000000     53.39000000
C21      7.56000000      1.53000000     53.59000000
C22      7.47000000      0.67000000     54.89000000
C23      6.21000000     99.91000000     55.45000000
C24      5.67000000      0.03000000     56.87000000
C25      4.47000000      0.38000000     57.40000000
C26      4.12000000      0.57000000     58.85000000
C27      2.71000000      0.55000000     59.43000000
C28      2.98000000      0.22000000     60.91000000
C29      2.18000000     99.84000000     62.19000000
C30      1.28000000     98.62000000     62.49000000
C31      1.03000000     98.34000000     63.98000000
C32      0.71000000     96.86000000     64.20000000
C33      1.04000000     96.37000000     65.61000000
C34     15.36000000     99.21000000     51.38000000
OS35     16.11000000     99.49000000     52.61000000
C36     16.34000000     98.88000000     53.87000000
O37     16.76000000     99.60000000     54.77000000
C38     15.95000000     97.49000000     54.35000000
C39     16.24000000     97.52000000     55.88000000
C40     15.55000000     96.46000000     56.77000000
C41     15.74000000     96.56000000     58.31000000
C42     15.17000000     97.82000000     58.99000000
C43     14.98000000     97.87000000     60.52000000
C44     14.25000000     99.17000000     60.98000000
C45     13.89000000     99.51000000     62.45000000
C46     14.08000000      0.95000000     62.97000000
C47     13.82000000      1.15000000     64.48000000
C48     14.54000000      0.22000000     65.45000000
C49     14.10000000      0.41000000     66.90000000
C50     14.79000000     99.34000000     67.75000000
C51     13.92000000     98.88000000     68.92000000
C52     14.43000000     97.58000000     69.53000000
 C1     20.84000000      3.18000000     45.55000000
 C2     20.17000000      1.01000000     44.94000000
 C3     22.32000000      1.86000000     44.16000000
 N4     21.34000000      1.83000000     45.24000000
 C5     21.93000000      1.23000000     46.46000000
 C6     23.29000000      1.79000000     46.92000000
OS7     23.09000000      3.15000000     47.27000000
 P8     23.84000000      3.79000000     48.53000000
OM9     24.97000000      3.73000000     47.56000000
OM10     22.72000000      4.73000000     48.41000000
OS11     23.51000000      2.45000000     49.33000000
C12     22.37000000      2.57000000     50.16000000
C13     21.68000000      1.34000000     50.80000000
OS14     20.74000000      2.02000000     51.68000000
C15     19.63000000      2.50000000     51.07000000
O16     19.26000000      1.92000000     50.05000000
C17     18.91000000      3.64000000     51.82000000
C18     17.53000000      3.27000000     52.40000000
C19     17.17000000      3.79000000     53.81000000
C20     16.46000000      2.74000000     54.74000000
C21     16.14000000      2.36000000     56.23000000
C22     14.83000000      2.56000000     57.03000000
C23     14.52000000      1.36000000     57.95000000
C24     13.28000000      1.24000000     58.81000000
C25     12.03000000      0.78000000     58.59000000
C26     10.59000000      0.53000000     59.00000000
C27      9.94000000      1.08000000     60.25000000
C28     11.00000000      1.27000000     61.29000000
C29     10.47000000      1.41000000     62.68000000
C30     10.65000000      0.08000000     63.36000000
C31     10.72000000      0.11000000     64.87000000
C32     10.62000000     98.66000000     65.30000000
C33     11.11000000     98.44000000     66.72000000
C34     22.68000000      0.26000000     51.39000000
OS35     22.33000000     99.01000000     52.08000000
C36     23.06000000     98.63000000     53.20000000
O37     24.08000000     99.23000000     53.47000000
C38     22.59000000     97.48000000     54.12000000
C39     23.36000000     97.43000000     55.48000000
C40     22.69000000     96.71000000     56.70000000
C41     23.14000000     96.92000000     58.18000000
C42     22.98000000     98.28000000     58.88000000
C43     23.20000000     98.44000000     60.38000000
C44     21.93000000     98.45000000     61.22000000
C45     22.29000000     98.69000000     62.69000000
C46     21.02000000     98.70000000     63.53000000
C47     21.23000000     98.87000000     65.03000000
C48     22.06000000      0.08000000     65.42000000
C49     21.87000000      0.23000000     66.92000000
C50     22.29000000     98.91000000     67.57000000
C51     21.87000000     98.85000000     69.04000000
C52     22.42000000     97.58000000     69.69000000
 C1     27.55000000      3.44000000     45.47000000
 C2     26.93000000      1.26000000     44.73000000
 C3     29.29000000      1.85000000     44.80000000
 N4     27.96000000      2.03000000     45.41000000
 C5     27.99000000      1.50000000     46.80000000
 C6     29.15000000      1.98000000     47.69000000
OS7     29.16000000      3.38000000     47.81000000
 P8     30.19000000      4.09000000     48.80000000
OM9     31.16000000      3.93000000     47.68000000
OM10     29.11000000      5.07000000     48.77000000
OS11     30.13000000      2.90000000     49.87000000
C12     29.13000000      2.97000000     50.89000000
C13     28.69000000      1.63000000     51.52000000
OS14     27.49000000      1.83000000     52.31000000
C15     26.22000000      1.88000000     51.81000000
O16     25.91000000      1.49000000     50.68000000
C17     25.30000000      2.07000000     53.01000000
C18     24.14000000      3.03000000     52.89000000
C19     23.28000000      2.94000000     54.15000000
C20     22.84000000      1.56000000     54.63000000
C21     22.70000000      1.26000000     56.13000000
C22     21.82000000      0.02000000     56.46000000
C23     20.51000000     99.16000000     56.63000000
C24     19.65000000     99.26000000     57.84000000
C25     18.35000000     99.47000000     58.00000000
C26     17.93000000     99.62000000     59.40000000
C27     17.07000000      0.82000000     59.77000000
C28     17.23000000      1.24000000     61.21000000
C29     17.10000000      0.20000000     62.33000000
C30     17.78000000     98.85000000     62.47000000
C31     16.95000000     98.12000000     63.48000000
C32     17.46000000     98.44000000     64.86000000
C33     18.20000000     97.17000000     65.17000000
C34     29.89000000      1.13000000     52.37000000
OS35     29.94000000     99.76000000     52.86000000
C36     30.82000000     99.51000000     53.88000000
O37     31.91000000      0.04000000     53.89000000
C38     30.53000000     98.20000000     54.63000000
C39     30.66000000     98.16000000     56.16000000
C40     29.65000000     97.22000000     56.87000000
C41     28.37000000     97.81000000     57.53000000
C42     27.08000000     98.36000000     58.20000000
C43     27.01000000     98.20000000     59.71000000
C44     26.61000000     99.38000000     60.60000000
C45     26.77000000     98.80000000     62.01000000
C46     26.16000000     99.65000000     63.11000000
C47     26.37000000     99.04000000     64.50000000
C48     27.83000000     99.08000000     64.98000000
C49     27.81000000     99.22000000     66.50000000
C50     29.11000000     98.88000000     67.22000000
C51     28.87000000     99.00000000     68.73000000
C52     29.88000000     98.17000000     69.52000000
 C1     35.01000000      0.50000000     45.30000000
 C2     35.89000000      2.66000000     44.78000000
 C3     33.49000000      2.31000000     44.77000000
 N4     34.77000000      1.95000000     45.40000000
 C5     34.75000000      2.37000000     46.82000000
 C6     33.57000000      1.87000000     47.67000000
OS7     33.56000000      0.45000000     47.75000000
 P8     32.20000000     99.87000000     48.31000000
OM9     31.39000000      0.21000000     47.11000000
OM10     32.36000000     98.50000000     48.71000000
OS11     32.06000000      0.74000000     49.59000000
C12     32.89000000      0.25000000     50.65000000
C13     33.85000000      1.34000000     51.10000000
OS14     34.93000000      0.70000000     51.88000000
C15     36.24000000      0.40000000     51.51000000
O16     36.67000000      0.73000000     50.39000000
C17     37.07000000     99.94000000     52.73000000
C18     38.51000000      0.47000000     52.89000000
C19     39.04000000      0.62000000     54.33000000
C20     40.14000000      1.70000000     54.48000000
C21     41.31000000      1.47000000     55.46000000
C22     42.62000000      2.07000000     54.96000000
C23     43.87000000      1.49000000     55.60000000
C24     43.97000000      1.89000000     57.03000000
C25     44.48000000      1.09000000     57.96000000
C26     44.54000000      1.43000000     59.41000000
C27     45.79000000      0.83000000     60.03000000
C28     45.48000000      0.61000000     61.49000000
C29     46.72000000      0.84000000     62.33000000
C30     46.47000000      2.05000000     63.20000000
C31     46.86000000      1.68000000     64.61000000
C32     46.95000000      2.96000000     65.40000000
C33     45.63000000      3.62000000     65.15000000
C34     32.90000000      2.55000000     51.51000000
OS35     33.26000000      3.92000000     51.93000000
C36     32.52000000      4.64000000     52.87000000
O37     31.31000000      4.40000000     52.90000000
C38     33.25000000      5.70000000     53.79000000
C39     34.21000000      5.63000000     55.08000000
C40     34.77000000      6.54000000     56.28000000
C41     35.91000000      6.74000000     57.38000000
C42     36.90000000      6.06000000     58.44000000
C43     37.41000000      5.28000000     59.73000000
C44     37.27000000      3.82000000     60.36000000
C45     37.66000000      3.35000000     61.81000000
C46     36.76000000      2.44000000     62.73000000
C47     37.14000000      2.40000000     64.25000000
C48     36.13000000      2.67000000     65.42000000
C49     36.76000000      3.11000000     66.79000000
C50     35.88000000      4.10000000     67.60000000
C51     36.41000000      5.05000000     68.70000000
C52     35.48000000      6.18000000     69.16000000
 C1     41.43000000      3.38000000     45.03000000
 C2     39.91000000      1.56000000     44.65000000
 C3     42.27000000      1.11000000     45.04000000
 N4     41.12000000      1.98000000     45.35000000
 C5     40.82000000      1.82000000     46.79000000
 C6     41.98000000      2.16000000     47.73000000
OS7     42.29000000      3.55000000     47.70000000
 P8     43.52000000      4.01000000     48.58000000
OM9     44.45000000      3.93000000     47.41000000
OM10     42.96000000      5.29000000     48.97000000
OS11     43.59000000      2.84000000     49.65000000
C12     42.84000000      2.97000000     50.86000000
C13     41.80000000      1.86000000     51.10000000
OS14     40.56000000      2.47000000     51.57000000
C15     39.66000000      3.18000000     50.81000000
O16     39.59000000      3.15000000     49.57000000
C17     38.67000000      3.82000000     51.78000000
C18     37.34000000      4.36000000     51.26000000
C19     36.12000000      3.63000000     51.85000000
C20     35.78000000      3.24000000     53.33000000
C21     34.84000000      2.35000000     54.28000000
C22     33.37000000      2.26000000     54.85000000
C23     32.66000000      2.97000000     56.04000000
C24     31.29000000      3.55000000     56.35000000
C25     30.93000000      3.91000000     57.60000000
C26     29.64000000      4.52000000     58.06000000
C27     29.47000000      5.09000000     59.48000000
C28     28.93000000      3.93000000     60.30000000
C29     28.68000000      4.11000000     61.78000000
C30     27.75000000      3.06000000     62.33000000
C31     27.51000000      3.43000000     63.78000000
C32     26.26000000      2.84000000     64.40000000
C33     26.56000000      2.47000000     65.85000000
C34     42.50000000      0.66000000     51.82000000
OS35     41.81000000     99.52000000     52.40000000
C36     42.45000000     98.82000000     53.40000000
O37     43.66000000     98.93000000     53.59000000
C38     41.54000000     97.87000000     54.19000000
C39     41.74000000     97.87000000     55.73000000
C40     40.44000000     98.24000000     56.47000000
C41     40.59000000     98.81000000     57.89000000
C42     39.52000000     99.89000000     58.18000000
C43     39.14000000      0.07000000     59.65000000
C44     40.31000000      0.45000000     60.55000000
C45     39.90000000      0.49000000     62.03000000
C46     40.94000000      1.20000000     62.90000000
C47     40.55000000      1.23000000     64.38000000
C48     41.26000000      0.17000000     65.21000000
C49     40.72000000      0.19000000     66.65000000
C50     41.06000000     98.91000000     67.43000000
C51     39.99000000     98.71000000     68.51000000
C52     40.48000000     97.90000000     69.71000000
 C1     47.15000000      0.50000000     45.43000000
 C2     48.89000000      1.88000000     44.59000000
 C3     46.68000000      2.82000000     45.12000000
 N4     47.73000000      1.85000000     45.47000000
 C5     48.23000000      2.17000000     46.84000000
 C6     47.26000000      2.06000000     48.03000000
OS7     46.91000000      0.70000000     48.25000000
 P8     45.53000000      0.57000000     49.00000000
OM9     44.83000000      1.01000000     47.75000000
OM10     45.36000000     99.18000000     49.36000000
OS11     45.91000000      1.51000000     50.24000000
C12     46.44000000      0.82000000     51.40000000
C13     47.49000000      1.54000000     52.29000000
OS14     48.62000000      0.68000000     52.54000000
C15     49.60000000      0.48000000     51.60000000
O16     49.58000000      0.86000000     50.42000000
C17     50.61000000     99.53000000     52.20000000
C18     51.42000000     98.77000000     51.17000000
C19     52.07000000     97.63000000     51.94000000
C20     52.81000000     98.25000000     53.12000000
C21     53.09000000     97.39000000     54.36000000
C22     54.11000000     98.06000000     55.29000000
C23     54.54000000     97.48000000     56.63000000
C24     55.64000000     98.30000000     57.23000000
C25     55.93000000     98.14000000     58.51000000
C26     56.26000000     97.98000000     59.95000000
C27     56.52000000     96.48000000     60.05000000
C28     56.43000000     95.82000000     61.42000000
C29     57.40000000     96.16000000     62.53000000
C30     57.26000000     97.48000000     63.29000000
C31     58.55000000     97.60000000     64.08000000
C32     58.32000000     97.96000000     65.54000000
C33     56.87000000     98.35000000     65.81000000
C34     46.86000000      2.14000000     53.60000000
OS35     47.49000000      3.34000000     54.16000000
C36     46.83000000      4.14000000     55.07000000
O37     45.68000000      3.90000000     55.39000000
C38     47.52000000      5.49000000     55.38000000
C39     47.69000000      6.46000000     56.57000000
C40     49.11000000      6.80000000     57.03000000
C41     49.25000000      6.83000000     58.56000000
C42     50.20000000      5.78000000     59.10000000
C43     50.05000000      5.57000000     60.60000000
C44     50.27000000      4.12000000     61.02000000
C45     49.91000000      4.00000000     62.50000000
C46     50.47000000      2.71000000     63.06000000
C47     50.26000000      2.63000000     64.57000000
C48     50.58000000      3.97000000     65.23000000
C49     50.26000000      3.89000000     66.72000000
C50     50.05000000      5.31000000     67.24000000
C51     49.96000000      5.37000000     68.76000000
C52     49.69000000      6.80000000     69.21000000
 C1     54.64000000      3.36000000     45.46000000
 C2     52.88000000      1.99000000     44.68000000
 C3     55.15000000      1.11000000     44.79000000
 N4     54.14000000      1.97000000     45.41000000
 C5     53.81000000      1.43000000     46.76000000
 C6     54.96000000      1.16000000     47.76000000
OS7     55.56000000      2.42000000     47.87000000
 P8     56.77000000      2.75000000     48.79000000
OM9     57.55000000      1.90000000     47.84000000
OM10     56.31000000      4.09000000     48.40000000
OS11     56.03000000      2.07000000     50.02000000
C12     55.18000000      2.97000000     50.75000000
C13     53.91000000      2.34000000     51.37000000
OS14     52.79000000      3.26000000     51.52000000
C15     51.83000000      3.37000000     50.53000000
O16     52.06000000      2.98000000     49.37000000
C17     50.69000000      4.35000000     50.90000000
C18     49.26000000      4.05000000     50.35000000
C19     47.94000000      4.92000000     50.40000000
C20     46.98000000      4.90000000     51.64000000
C21     45.57000000      5.54000000     51.91000000
C22     45.18000000      6.30000000     53.23000000
C23     44.80000000      7.07000000     54.56000000
C24     44.32000000      6.52000000     55.91000000
C25     44.50000000      6.90000000     57.20000000
C26     44.07000000      6.32000000     58.52000000
C27     43.26000000      7.15000000     59.53000000
C28     44.07000000      7.75000000     60.70000000
C29     43.49000000      7.48000000     62.09000000
C30     43.46000000      5.98000000     62.46000000
C31     43.16000000      5.70000000     63.93000000
C32     42.53000000      4.32000000     64.15000000
C33     42.44000000      3.97000000     65.64000000
C34     54.42000000      1.59000000     52.62000000
OS35     53.48000000      1.27000000     53.66000000
C36     54.07000000      1.24000000     54.88000000
O37     55.27000000      1.05000000     55.01000000
C38     53.06000000      1.15000000     56.04000000
C39     51.66000000      0.69000000     55.65000000
C40     51.21000000     99.48000000     56.46000000
C41     51.58000000     99.59000000     57.93000000
C42     50.36000000      0.06000000     58.71000000
C43     50.51000000     99.61000000     60.14000000
C44     51.87000000      0.06000000     60.63000000
C45     51.96000000     99.64000000     62.08000000
C46     53.25000000      0.16000000     62.67000000
C47     52.98000000      0.41000000     64.13000000
C48     52.76000000     99.19000000     65.00000000
C49     52.93000000     99.72000000     66.41000000
C50     52.13000000     98.93000000     67.42000000
C51     52.56000000     99.41000000     68.79000000
C52     53.93000000     98.87000000     69.19000000
 C1     59.26000000      2.31000000     45.27000000
 C2     60.50000000      0.39000000     44.66000000
 C3     61.38000000      2.60000000     44.13000000
 N4     60.63000000      1.78000000     45.08000000
 C5     61.35000000      1.74000000     46.38000000
 C6     61.73000000      3.10000000     46.97000000
OS7     60.51000000      3.77000000     47.30000000
 P8     60.56000000      4.53000000     48.70000000
OM9     61.49000000      5.44000000     48.00000000
OM10     59.14000000      4.80000000     48.77000000
OS11     60.98000000      3.13000000     49.37000000
C12     59.96000000      2.37000000     50.02000000
C13     60.39000000      1.10000000     50.78000000
OS14     59.30000000      0.74000000     51.63000000
C15     58.45000000     99.89000000     51.05000000
O16     58.67000000     99.38000000     49.94000000
C17     57.32000000     99.62000000     52.03000000
C18     56.54000000     98.42000000     51.55000000
C19     56.02000000     97.49000000     52.65000000
C20     56.70000000     96.60000000     53.72000000
C21     55.76000000     95.42000000     53.98000000
C22     55.81000000     94.21000000     54.91000000
C23     54.75000000     94.12000000     56.01000000
C24     55.12000000     93.04000000     56.97000000
C25     55.08000000     93.05000000     58.31000000
C26     55.57000000     91.88000000     59.10000000
C27     54.62000000     91.35000000     60.16000000
C28     54.39000000     92.43000000     61.21000000
C29     53.93000000     91.74000000     62.49000000
C30     55.13000000     90.96000000     63.02000000
C31     54.75000000     90.14000000     64.25000000
C32     56.04000000     89.81000000     64.98000000
C33     56.68000000     91.13000000     65.42000000
C34     61.70000000      1.36000000     51.52000000
OS35     62.21000000      0.73000000     52.69000000
C36     62.39000000      1.36000000     53.89000000
O37     62.66000000      2.52000000     54.18000000
C38     62.81000000      0.16000000     54.66000000
C39     62.83000000     99.89000000     56.14000000
C40     63.01000000     98.39000000     56.28000000
C41     63.95000000     98.10000000     57.43000000
C42     63.08000000     97.80000000     58.62000000
C43     63.88000000     97.83000000     59.90000000
C44     62.99000000     97.69000000     61.13000000
C45     63.47000000     98.14000000     62.49000000
C46     62.24000000     98.51000000     63.31000000
C47     62.36000000     98.20000000     64.79000000
C48     63.55000000     98.94000000     65.38000000
C49     63.21000000      0.01000000     66.43000000
C50     62.65000000     99.36000000     67.69000000
C51     62.53000000      0.28000000     68.91000000
C52     63.88000000      0.54000000     69.57000000
 C1     67.20000000      3.46000000     45.36000000
 C2     65.76000000      1.74000000     44.63000000
 C3     68.14000000      1.62000000     44.09000000
 N4     67.12000000      2.01000000     45.07000000
 C5     67.31000000      1.20000000     46.31000000
 C6     68.70000000      1.18000000     46.94000000
OS7     68.93000000      2.52000000     47.31000000
 P8     69.75000000      2.94000000     48.59000000
OM9     70.83000000      2.53000000     47.64000000
OM10     69.00000000      4.16000000     48.27000000
OS11     68.91000000      1.81000000     49.38000000
C12     67.77000000      2.20000000     50.15000000
C13     67.01000000      1.11000000     50.94000000
OS14     65.88000000      1.81000000     51.59000000
C15     64.91000000      2.53000000     50.89000000
O16     64.54000000      2.15000000     49.76000000
C17     64.18000000      3.59000000     51.77000000
C18     62.96000000      4.37000000     51.19000000
C19     61.66000000      4.90000000     51.91000000
C20     60.60000000      4.17000000     52.80000000
C21     59.16000000      4.56000000     53.23000000
C22     58.54000000      3.49000000     54.18000000
C23     57.73000000      4.02000000     55.40000000
C24     57.20000000      3.09000000     56.49000000
C25     56.91000000      3.30000000     57.80000000
C26     56.45000000      2.27000000     58.80000000
C27     55.74000000      2.74000000     60.08000000
C28     56.63000000      3.58000000     60.99000000
C29     55.97000000      4.11000000     62.25000000
C30     55.68000000      3.00000000     63.25000000
C31     55.17000000      3.66000000     64.52000000
C32     54.93000000      2.62000000     65.61000000
C33     56.19000000      1.93000000     66.07000000
C34     68.08000000      0.35000000     51.80000000
OS35     68.15000000     98.98000000     52.34000000
C36     68.82000000     98.80000000     53.55000000
O37     69.28000000     99.78000000     54.11000000
C38     68.79000000     97.40000000     54.23000000
C39     69.23000000     97.24000000     55.70000000
C40     68.10000000     97.01000000     56.73000000
C41     68.47000000     97.53000000     58.13000000
C42     67.26000000     97.88000000     59.01000000
C43     67.64000000     98.51000000     60.35000000
C44     66.58000000     99.49000000     60.86000000