52
Energy =      0.00000000 au
 Na     -7.72867684      1.68566308      1.46760116
 Na      7.06489742      2.83187852      1.59508473
 Na      0.80957221      1.46513336      3.43394956
 Na      0.31157301     -3.53119928      1.04702510
 Na      7.67343159      1.41955287     -1.29940877
 Na     -7.19900949     -1.58542225     -0.01545407
 Na     -7.77121175     -0.47809758      1.56564630
 Na     -3.12153853     -0.52254179     -2.15267650
 Na     -6.77201628      3.00713194      0.30447618
 Na     -5.28895938      3.16385827      1.64637791
 Na     -8.49976349      0.55488462     -0.15555206
 Na      8.50194111     -0.87695272      1.48817223
 Na      5.26261690     -1.36598093      2.66639307
 Na      9.00294931      1.19322209      1.57517079
 Na     -5.78820714     -2.17191706      1.27597684
 Na     -3.45256996      3.29300591     -1.37081072
 Na      7.68952550     -1.93813592     -0.01181518
 Na     -3.26654845      4.23338228      0.39142566
 Na      0.11361841     -1.55597784      3.07015552
 Na      2.29274269     -2.80080697      2.08564682
 Na      8.44663234      2.53381892      0.17294730
 Na      3.55288667      3.93269001      1.65598055
 Na     -6.62909262      1.74228800     -1.24323117
 Na     -3.49127710      1.44340772     -2.13376092
 Na      1.21261272      4.61026069      0.78923447
 Na      0.84540082      4.12587047     -1.12148858
 Na     -5.98150399      0.80518327      2.56877851
 Na     -6.54136639     -0.26465286     -1.37367103
 Na      3.77768423     -0.53152397     -2.21705958
 Na      4.38811125      1.37352164     -2.16432408
 Na     -4.15756914     -2.02779035     -1.33351311
 Na     -2.20308890     -2.75783247      1.98931775
 Na      3.09096962     -0.04670205      3.34358500
 Na      4.51748630     -2.19895037     -1.39438825
 Na      0.80244435      3.35801549      2.63022570
 Na     -1.54294101      4.09497719      1.62543058
 Na      0.36777400      0.50197470     -2.51424185
 Na      6.98361291      0.48509028      2.58064195
 Na      5.39975398      3.95976237      0.38885454
 Na      7.29042910     -0.55154482     -1.40204364
 Na     -2.21046628      0.18050121      3.35066455
 Na      3.88670739     -3.26734915      0.21417783
 Na      4.89296796      2.18889425      2.79157250
 Na      9.41322899      0.06123510     -0.17841390
 Na      0.54391268      2.47078831     -2.20369513
 Na     -4.65563854     -1.19560366      2.60547167
 Na      5.94109371     -2.60722464      1.17212255
 Na     -3.34178073      2.35100712      2.83084260
 Na      4.91898581      3.13581204     -1.37746837
 Na     -3.59259879     -3.13224592      0.32453522
 Na     -0.03031004     -3.20473435     -0.90260115
 Na      0.26149714     -1.61809071     -2.10238604
