52
Energy =      0.00000000 au
 Na      6.75085815     -0.03962735      2.62007820
 Na     -5.36191519     -0.44906481     -1.71142439
 Na      5.34805271      3.02076395      2.17756403
 Na     -1.21394620     -1.07467734     -2.19792861
 Na      1.28416476      2.90473370      2.88304062
 Na     -1.55890725      4.63528807      0.45737567
 Na     -5.99317245     -0.66236051      2.44165656
 Na      4.44585791      1.44233155      3.10202405
 Na     -0.41111589     -3.33201173      1.44460676
 Na      3.58323744      4.41154478     -0.02069952
 Na     -4.05900683      0.60313600      3.08546378
 Na      3.81905565     -3.13551266      1.28848111
 Na     -3.48163943      0.93558476     -2.18545856
 Na     -3.83466785      2.81462621     -1.53173934
 Na      3.53538261      3.19636393     -1.61119306
 Na      2.13521454     -2.25775590     -1.60355940
 Na     -1.67494525     -1.12788818      3.14268145
 Na     -8.06595888     -0.15561247     -0.56070823
 Na      0.14039205      2.42168857     -2.16057076
 Na      8.89498611     -0.31100241      1.64486817
 Na     -6.08630575     -1.99628694     -0.65294322
 Na      1.45039396     -2.42016636      2.52558449
 Na      8.13386065      1.64241833      1.89987286
 Na     -0.51569618      4.00378279     -1.12784221
 Na      0.15267136      0.96601918      3.47732020
 Na      4.64198167      1.58230958     -2.04206214
 Na     -7.92073386      2.02663294      0.47254065
 Na     -5.23629756      3.58965777     -0.32574565
 Na      4.22193381     -0.54509544     -2.11656735
 Na      0.48005041     -3.37572924     -0.39159004
 Na      2.86753821     -0.70352365      3.24998763
 Na      9.26668010      1.51582554      0.22363760
 Na      6.88284977      3.37559635      0.92784775
 Na     -1.47016081      3.78580012      2.26584487
 Na     -6.77526719      1.60930807      2.07030461
 Na      9.10992841     -0.45530396     -0.41127700
 Na      0.85147517      0.58350017     -2.50034873
 Na     -3.20716498      2.48669123      2.79190687
 Na     -7.00409837     -1.80199912      1.13510283
 Na      7.71457111      0.67062075     -1.30293227
 Na      2.52884901      4.17261311      1.68277881
 Na      6.69228308     -1.45096707     -1.11198207
 Na      5.81962276     -1.86615903      2.14513261
 Na      4.69870742     -2.83265937     -0.53633294
 Na     -8.27187384      0.24235139      1.47197241
 Na     -2.48097452     -2.49424427     -1.22323834
 Na      7.49615531     -2.00998705      0.63328484
 Na      7.20085016      2.56902735     -0.91635363
 Na     -5.41780914      3.26986409      1.64655366
 Na     -3.50346065     -2.36217246      2.17847413
 Na     -3.75975276     -3.06427834      0.29038805
 Na     -6.84190935      1.44183605     -1.12848909
