52
Energy =      0.00000000 au
 Na     -5.06323509      2.52391136     -1.45784577
 Na      9.37245090      0.08747713      1.36647209
 Na      4.71504373     -2.35687367      2.18724803
 Na     -6.71493764      1.61001153      2.17231306
 Na     -6.06752101     -0.35033358     -1.44956235
 Na      0.22084998      0.20067487      3.49014117
 Na      3.52476820      4.20970834      1.24794120
 Na      6.34804405      3.34934853     -0.48770082
 Na     -4.96007006     -2.19175762     -0.76960152
 Na      4.14542571      1.18161499     -2.19482712
 Na     -6.67247169     -1.96642950      0.91443371
 Na      2.36299667     -1.17660258     -2.15201339
 Na      4.68965416      1.00247534      3.12823580
 Na     -3.10617776      2.60571575      2.76287026
 Na     -7.79543177     -0.83176044     -0.31043416
 Na      3.49851509     -1.00234476      3.09449510
 Na     -3.39750344     -3.18956406      0.19590982
 Na     -6.57240739     -0.42907646      2.28540612
 Na      4.37131972      2.91900777      2.52965892
 Na     -2.83893937     -1.02186667      3.07380888
 Na      0.63169424     -3.52241110      1.49316670
 Na      8.00896669     -1.78466302      1.14271630
 Na     -3.70529972     -2.53783124      2.06727097
 Na     -4.58180861      3.54663233      1.79371118
 Na      8.89861679     -0.05171683     -0.73178970
 Na      0.49759756     -2.09041564      2.88498407
 Na     -8.45241891      0.53799753      1.08260952
 Na      7.84941863      1.40548788      2.12225329
 Na     -0.28769480      2.40882751     -2.15275263
 Na      6.26199120     -0.42518590     -1.71501876
 Na      7.08873538      3.11394351      1.38536382
 Na     -0.92770959     -2.54557994     -1.39175537
 Na      0.14350104      3.80594378      2.21679360
 Na      4.68579099     -3.18196595      0.35054751
 Na      7.18742565     -1.87150594     -0.68698309
 Na      7.13192690     -0.50829413      2.43104572
 Na      2.44664203      4.24680810     -0.45419395
 Na     -4.56875146      3.97494860     -0.16216045
 Na      0.78828186      2.15271754      3.23025843
 Na      8.96835739      1.90614376      0.26111855
 Na      0.20201620      0.50138094     -2.50179521
 Na      0.63688030     -3.43395855     -0.51038980
 Na     -1.17463267      3.88465734     -1.13349020
 Na     -1.02788614      4.51629006      0.75846919
 Na      3.67624644      3.05185233     -1.55330926
 Na     -2.43628955     -1.03891306     -2.09034362
 Na      7.38653393      1.66243007     -1.22352930
 Na     -4.01461481      0.80215025      3.08534488
 Na     -7.64677073      1.13494479     -0.82183599
 Na      3.68412278     -2.47728122     -1.25027928
 Na     -3.87906688      1.04642376     -2.10527485
 Na     -7.47179081      2.60724535      0.57273396
