5100
Energy =      0.00000000 au
  O     20.77782475     35.21012523     11.75167308
  H     21.41591461     35.67897366     12.29446446
  H     20.17349579     34.72273618     12.31633087
  O      5.19018597     43.98472242     19.44141564
  H      5.15735939     44.40829192     18.58053743
  H      4.29808013     43.78545679     19.73474207
  O      0.46292542      5.91940946      8.86367790
  H     -0.37802785      6.10188421      8.43811879
  H      1.16162993      5.91819939      8.20533866
  O      6.04268292     10.11884753      1.12147134
  H      5.76435141      9.39968624      1.69325680
  H      6.35817504     10.85038947      1.65711220
  O     33.98384330     37.38252146      4.60202513
  H     33.72761507     36.49345789      4.34606994
  H     34.91782995     37.39557749      4.82360691
  O     14.80511740     30.50911144      2.21040482
  H     13.93535866     30.32768697      1.84680490
  H     15.44439775     30.57015040      1.49682590
  O     32.15727797     26.51076127     27.16249013
  H     31.42025570     25.89632281     27.13310380
  H     32.97397971     26.04055642     26.97944460
  O     20.33574993     10.82591643     20.35843997
  H     20.70337184     11.29052651     21.11381512
  H     20.36144233      9.88003581     20.52045774
  O      8.50383429     49.09247105     11.75540264
  H      9.46174022     49.02999980     11.76605978
  H      8.20078429     49.21613019     10.85292321
  O      5.80572951     33.35325046      4.94208714
  H      5.71665852     34.20816778      4.51455615
  H      5.54471057     32.66053857      4.33084304
  O      2.61663872     12.13202374     30.50096880
  H      2.53838308     13.07377526     30.33191223
  H      2.14306446     11.64432519     29.82312106
  O     45.79849076     14.17015718     19.04690886
  H     44.90430102     14.42301829     19.28791915
  H     46.20497697     13.69605323     19.77601407
  O     38.78711856      4.28288377     25.18045289
  H     38.26954684      4.92496759     24.68907942
  H     39.56547860      4.71032574     25.54521173
  O      0.79298227     49.63275731     25.64620202
  H      0.56854192     48.89694592     25.07191278
  H      1.02169345     50.39743192     25.11275667
  O     16.20892604     10.08121911     25.61325592
  H     16.84780248      9.39147732     25.80740318
  H     15.85861380     10.43392623     26.43452264
  O     42.12435727     32.68611848     19.25291615
  H     42.60128699     33.06164627     18.50919783
  H     41.24646754     32.42048043     18.96946235
  O      2.09665823     21.84980009     26.57786791
  H      1.37676840     21.58809827     25.99918769
  H      2.23205434     21.17437728     27.24650228
  O     19.49649177     31.06881425     11.58071508
  H     19.60592628     31.79553948     12.19836752
  H     19.28801626     30.26603485     12.06412298
  O      5.74364012     38.71087408     14.59857902
  H      5.56746858     38.10413925     15.32137667
  H      5.24510637     39.52050870     14.73107763
  O     12.94095166     41.55299303     19.25434977
  H     12.33210811     41.68933911     19.98395191
  H     13.19207386     42.40214602     18.88357107
  O     45.43766974      5.09814554     10.51170054
  H     46.31498453      4.85242918     10.81426001
  H     44.78984454      4.85770890     11.17811837
  O      3.32598230     39.50742765      4.45887731
  H      2.68030021     39.97078023      4.99739289
  H      4.19719768     39.60196981      4.85085376
  O     16.37266648     39.16507203     23.82361358
  H     17.15150330     39.06033517     23.27221228
  H     15.65181860     39.51731568     23.29644875
  O     38.81354425     14.09127790     23.02122163
  H     38.20245507     13.51039941     22.56214626
  H     39.42096403     14.48179551     22.38865764
  O     16.42536880     11.67296345     18.53899626
  H     16.34323862     11.50501720     17.59737601
  H     15.58848089     11.99569746     18.88113861
  O     33.19199772     40.04114822     11.80553181
  H     33.57979083     40.50119542     11.05748563
  H     32.80888869     39.21251093     11.50856763
  O     17.39860389     32.74094290      9.06184350
  H     18.28303377     32.93763905      8.74451966
  H     16.95520655     32.16254898      8.43697610
  O     48.47270805     39.76667523     15.81686502
  H     47.55109636     39.51629503     15.91454636
  H     48.91620899     39.69383872     16.66515847
  O     49.74801694     21.50195697     24.45655775
  H     49.63624806     20.79349300     23.81844607
  H     49.15214302     21.36377480     25.19644961
  O     17.70985714      8.97853196     21.90830345
  H     17.51171375      8.80189941     22.83087602
  H     18.01310692      9.88442163     21.81341677
  O     33.77557693      8.34830996     25.10044199
  H     34.71235233      8.47189724     25.27008285
  H     33.28998058      8.40587030     25.92656728
  O     46.64115143     24.64235943     29.19773333
  H     45.94812337     24.36919588     28.59218086
  H     47.32273493     25.11370647     28.71309335
  O     21.02490485     35.05761108     16.44642693
  H     21.00029361     34.09806050     16.46245713
  H     21.04861867     35.36240475     15.53640579
  O     20.69027279      0.94421867     29.55802458
  H     21.17689700      1.77174074     29.56004875
  H     21.23639354      0.25224626     29.17785841
  O      6.62152442     32.56037583     16.68328600
  H      6.29399401     31.68232318     16.89148636
  H      6.91788718     32.99109991     17.48842319
  O      8.43999967     45.60354679      8.07793106
  H      7.88988300     46.20718903      7.57336422
  H      8.91171523     45.02181254      7.47737323
  O      8.73313383     32.38311216     16.60318331
  H      9.30541023     32.05451270     17.30040790
  H      9.03933138     33.24705729     16.31780307
  O     32.42972325     43.06426532     25.41764031
  H     33.27247546     42.70412810     25.70341976
  H     32.02943848     43.55455168     26.13943764
  O     18.92539712     35.31585078     19.70491187
  H     18.19629118     35.53093636     19.11861611
  H     19.66830549     34.99539438     19.18819643
  O     17.01256333     11.42347633      0.39748734
  H     16.35993272     10.93853111     -0.11290606
  H     17.04645496     12.33313952      0.09258695
  O     42.71801678     17.89082316     20.39984529
  H     43.30940875     17.97913444     19.64880824
  H     42.59748567     16.96082125     20.60519547
  O     46.59381073     11.68305842     19.19796871
  H     45.89974825     12.04324357     18.64106302
  H     47.28984506     11.31793599     18.64676837
  O     -0.58018728     29.01646597     27.63556024
  H      0.00300056     28.33193310     27.97157616
  H     -0.71491242     29.68348864     28.31270859
  O     18.07891467     13.34396649     20.34677003
  H     17.60430154     12.73664438     19.77449193
  H     18.67584474     13.88040939     19.81998401
  O      7.29808352      5.11880451     25.48316993
  H      7.53664351      4.94561374     26.39678588
  H      6.34308644      5.08856288     25.39007845
  O     23.02774501     37.60551247     17.79208400
  H     22.58946673     36.77799105     17.58061192
  H     22.52978199     38.06767501     18.47034547
  O     28.66776399     39.38371269     13.58530608
  H     28.82666914     40.31629313     13.42207964
  H     28.19675260     39.27936101     14.41528139
  O     20.21617911     15.33974794     21.35188941
  H     20.41149067     15.53089333     20.43160857
  H     19.70116526     14.53160379     21.40901893
  O     11.20103402      9.85251101     18.23956987
  H     11.79884784     10.57806361     18.04516806
  H     10.85050635      9.49755966     17.41936264
  O     13.69259218      4.24678691     27.47945736
  H     13.16716525      4.96860083     27.12659589
  H     14.24873552      3.88598235     26.78510540
  O     31.74809724     28.68867541     25.90062933
  H     32.52298155     28.12222218     25.91751266
  H     31.07746016     28.29753401     25.33595746
  O     50.11143161     23.56843831      7.61322367
  H     49.18156819     23.38900710      7.45587541
  H     50.19757075     24.23805062      8.29571866
  O     36.39606137      3.16401368      6.85441990
  H     36.36418021      3.10478212      5.89677946
  H     36.96971478      2.47576035      7.19913589
  O     22.61844591     43.84306669     14.27063815
  H     22.19083407     43.51040631     13.47811989
  H     23.53139579     44.06472602     14.07318016
  O     35.50027679      3.41991297     13.67190734
  H     35.15057485      3.29188064     12.78708178
  H     36.21074933      4.06499350     13.64545196
  O     27.84360149     27.52329283     24.58818884
  H     27.82916664     26.60753808     24.87591244
  H     28.38155635     28.04049476     25.19209838
  O     27.40832100     27.35966314      6.08893913
  H     28.31724771     27.36737360      5.78008189
  H     27.24565963     26.55475824      6.58620103
  O     23.08854704     34.53081443     13.45912455
  H     23.41447885     34.68116767     12.56875251
  H     22.84597190     35.36987936     13.85753055
  O     30.50462358     15.90899196     17.82556283
  H     29.91522211     16.43268044     18.37324549
  H     31.05844439     15.35965931     18.38513065
  O     41.65248632     19.70981391      8.32333522
  H     40.80029264     20.04822814      8.03900836
  H     41.59835995     18.75780146      8.43443263
  O     42.17014522     44.40143691     28.55387521
  H     42.48135806     44.50565369     29.45603120
  H     42.72133091     44.91961786     27.96287365
  O     49.53617862     17.80157998      0.60912308
  H     48.81708817     17.31316739      0.20173868
  H     49.18215303     18.55850500      1.08170155
  O     16.41192287     49.41291674     15.27997067
  H     15.64432288     49.98811259     15.24072800
  H     16.67930284     49.17413998     14.38941264
  O     29.91852503      7.67066176     29.06395227
  H     29.79654286      8.31193703     29.76786022
  H     29.49134629      6.84535488     29.30475693
  O     22.22338959     49.53687853      5.33341272
  H     21.49249031     48.91565075      5.37165259
  H     22.85552777     49.33097910      6.02594918
  O     49.69312028     43.64761393     26.98710799
  H     48.73538055     43.63563245     27.05184641
  H     49.95330143     43.55709380     26.06748204
  O     37.00759292      6.56056928     23.13472334
  H     36.31824810      7.14453396     23.45936001
  H     36.80890122      5.65691221     23.39070283
  O     24.59085815      1.33783162     15.75386944
  H     25.36353788      1.73557575     15.34598999
  H     24.86390891      0.60528547     16.31102240
  O      7.49275977     14.04324583      4.90507634
  H      6.78909043     14.31348819      5.49956649
  H      7.30341280     14.36079547      4.01912490
  O     36.38044757     33.90126794      7.64371132
  H     36.94649994     34.47530596      7.12249632
  H     36.43733891     34.14964651      8.56927680
  O     12.61191155     30.11580558     26.86410550
  H     13.04542244     30.16344686     26.00888703
  H     11.70574187     30.42180868     26.78153050
  O     36.41760699     34.04241661     23.56531524
  H     35.74334618     34.71250184     23.69932331
  H     36.72438172     33.72175912     24.41658960
  O     44.56805640     37.43635366     19.02624657
  H     45.00164080     36.90428267     19.69744329
  H     43.91072924     38.00065807     19.43986661
  O     49.64824779     34.17499516      4.16175609
  H     49.07227937     34.90196191      3.91400677
  H     50.54151647     34.50287539      4.28890019
  O      1.76351066     45.40606689      3.95608542
  H      1.72613610     46.18657946      4.51376209
  H      1.80137822     44.62045083      4.50651567
  O     40.63230874     32.34480915      7.99316463
  H     40.46150760     33.24149009      7.69585960
  H     41.42359099     32.01037164      7.56465097
  O     35.30406780     29.32313292      2.42289133
  H     34.85385230     28.67925565      2.97455071
  H     35.70308205     29.99731155      2.97775239
  O     29.58729895     23.81142743     21.51693591
  H     29.09393421     24.34492026     22.14429278
  H     29.73532045     24.31609279     20.71381543
  O      2.12244944     37.28493881     22.13838688
  H      1.87241551     37.25084376     21.21214687
  H      1.57996170     36.67162565     22.63953957
  O     32.14413266     48.53036516     16.08559021
  H     33.01969209     48.91304366     16.17807191
  H     31.48132728     49.19179003     16.29726492
  O     12.48349997     34.86491398      7.43263131
  H     12.67281178     34.12664474      8.01634320
  H     13.28183755     35.38123771      7.29971439
  O     33.77892810      4.37579065     15.75032436
  H     33.72395817      5.16378916     16.29588522
  H     33.07046117      3.77251697     15.98640800
  O      8.89579691     44.46368141      2.84282029
  H      9.08198224     45.30365746      2.41693854
  H      8.38883623     43.90757478      2.24671937
  O     20.02914279      9.71903181      8.15892230
  H     20.16192854     10.66764786      8.09492594
  H     20.07437983      9.45050357      9.07949071
  O     22.89678465     39.23471772      3.67076009
  H     22.85429177     38.65744697      2.90489271
  H     23.00432070     40.14370876      3.38132738
  O     15.95473721     19.58950713     16.88740331
  H     16.77174017     19.20483113     16.56162649
  H     15.79066497     19.28295484     17.78222508
  O     24.98541997     16.64303561     28.35626100
  H     24.18880321     16.35500360     28.80796811
  H     25.75479837     16.27723457     28.79880646
  O     49.10139947     15.65465374      4.26329760
  H     49.92785109     15.27674756      3.95383894
  H     48.65081639     16.08254566      3.53153029
  O     18.98636549      4.70923430     23.15732122
  H     18.69758991      5.39711271     22.55314247
  H     19.91514250      4.83459425     23.36530713
  O     42.58170428     40.84175577     11.72605793
  H     42.92478591     41.25462035     10.93016985
  H     42.58727056     39.88764329     11.62004658
  O     45.98820050     46.88409781      6.47822467
  H     46.06145141     47.83393080      6.35968525
  H     46.30807085     46.64447650      7.35107322
  O     38.62234543     38.96198944     21.85983953
  H     38.09988451     38.38990165     21.29296199
  H     39.14076253     38.42662769     22.46501016
  O     20.86288690     22.81902946      3.03574661
  H     21.61058817     22.54369267      3.57122067
  H     20.23590048     23.29772916      3.58286144
  O     14.08398329     23.42839132     20.33112144
  H     14.33131758     22.59930216     19.91514437
  H     14.28134659     23.38740124     21.26972015
  O     20.24100330      9.64038202      3.01044534
  H     19.93011472      9.36736429      2.14418348
  H     20.68721528      8.90523945      3.43713056
  O     46.53312148     16.30390657      0.69967670
  H     46.76827064     16.12035932      1.61215426
  H     45.98044377     17.08798472      0.66267930
  O     12.67938077     41.16952661     28.82638028
  H     13.03607158     41.78669207     29.46940319
  H     13.32846116     41.01509340     28.13613030
  O     13.18190657      2.90166961     15.38345527
  H     14.01237142      2.43750347     15.51182167
  H     13.31866244      3.64565110     14.79236358
  O     24.31802486     26.76298480     12.93650791
  H     24.13457266     27.61993382     12.54461037
  H     25.11624415     26.81749975     13.46704922
  O     20.37100122     12.81729087     28.00716924
  H     20.56662713     13.33378964     27.22195619
  H     20.13361994     11.92292385     27.75151760
  O     43.27625866     22.16160972     29.88672747
  H     42.37791244     22.48824961     29.79795543
  H     43.26003132     21.27532112     30.25527759
  O     49.75220926     31.36714794      5.66533267
  H     49.33800429     30.77014887      5.03793618
  H     50.09417134     32.13410802      5.20010779
  O     10.18762582     35.66513264     23.14490587
  H     10.69063266     34.85109627     23.22190532
  H      9.25923651     35.45723941     23.01655595
  O     13.35919020     44.20193871     13.44976323
  H     13.97966852     44.61910215     14.05191049
  H     12.62228831     43.84113848     13.94815945
  O     10.42694139     11.09940076     28.39373136
  H     10.22819059     10.27680109     28.84697291
  H     10.86002963     11.70349057     29.00127568
  O     47.33498247      6.54306662      3.11425275
  H     47.35333405      6.12012814      2.25263435
  H     47.19577289      7.48663492      3.00516772
  O     35.80944175     10.76043808      4.37272335
  H     35.39071626     10.00883732      4.79859337
  H     35.98189078     11.44330375      5.02506974
  O     35.78153383     42.43400469      2.14543704
  H     35.37077912     43.04957677      1.53392123
  H     36.68591261     42.70715054      2.31599602
  O     16.35317174     43.86876124      3.25166717
  H     16.00849759     43.12865906      2.74664390
  H     16.40878262     44.64350116      2.68749921
  O     32.65192804     15.78126489     28.33142985
  H     31.88271638     15.63079698     27.77710790
  H     33.43250445     15.86875516     27.77948245
  O     35.40290842     38.88077776      0.43004190
  H     34.54586592     38.45104788      0.47913758
  H     35.50288381     39.48201050      1.17174542
  O     26.56135178      9.90895439     25.97110291
  H     27.43505055      9.82404362     25.58246346
  H     25.90328573      9.95345260     25.27355795
  O     45.19515325      7.78344895     21.77409839
  H     44.24073701      7.88291285     21.74587477
  H     45.61097238      8.63072232     21.59853560
  O     29.65096229     21.67926174     20.76700877
  H     29.92087708     21.11367789     21.49423702
  H     30.23171460     21.53509772     20.01631343
  O     15.38593257      6.32082651      8.31046403
  H     14.64255742      6.92823993      8.31696942
  H     15.67476064      6.17751986      7.40622869
  O     27.15455772      3.15997204      6.20826855
  H     28.02384035      3.39809645      6.53879009
  H     27.09183777      3.38833739      5.27793771
  O     15.72262845      6.75774219     25.84325643
  H     15.05964808      7.00333283     25.19383957
  H     15.32194913      6.72906264     26.71517017
  O     43.68163210     11.56613705      7.46298385
  H     42.73426681     11.41266626      7.43962305
  H     44.05772567     11.38050753      6.59944733
  O     10.86661445     16.63238429     18.68557284
  H     10.32585452     15.87771998     18.92982781
  H     11.30047337     16.45779514     17.84719043
  O     21.95079170     10.81774886      9.29171167
  H     22.55220167     10.16283020      9.65363376
  H     22.17854166     10.99013322      8.37518912
  O     45.41167239     25.69964460     26.22548168
  H     44.63822165     25.79426612     26.78621400
  H     45.61626667     24.76808099     26.11625518
  O      5.79808477     29.42699682     10.94374651
  H      6.61138570     29.39363555     11.45269507
  H      5.04652013     29.33912914     11.53453401
  O      7.52332940     13.09888638      1.94413884
  H      8.39093686     13.34058885      2.27645980
  H      7.08432184     12.52851774      2.57939625
  O     45.98831613     23.25985941     14.56930136
  H     46.69424698     22.85662241     14.05875112
  H     45.32315586     23.61249146     13.97363999
  O      1.30909273     31.92852088     17.62368362
  H      1.95092511     32.42606934     18.13563745
  H      0.81729489     31.34516042     18.20628594
  O     19.69190327     31.28769200     16.67065278
  H     19.14139948     31.16719071     15.89346231
  H     19.79781449     32.22557209     16.84604878
  O     29.49255718      2.59335229     24.94345876
  H     28.99843556      1.77029979     24.93812750
  H     30.41496671      2.41209522     25.13815474
  O     30.38143736     25.62878570      6.90152907
  H     30.44837960     25.89141858      5.98058244
  H     29.53548372     25.91319333      7.25518816
  O     29.36276158     23.17566839      0.81723728
  H     29.46761523     23.86126356      0.15348659
  H     29.80217294     23.44414496      1.62744588
  O     47.21864172     11.18236151     15.89299003
  H     47.37997672     11.71190676     16.67730684
  H     46.88134295     10.32150481     16.15136048
  O     40.91850819     38.34627231     28.11774579
  H     41.16790321     39.27214086     28.16432417
  H     41.70808834     37.80048295     28.13439429
  O     27.27474217      8.76272645      3.10398481
  H     26.46843327      9.19333004      3.39732165
  H     27.50956151      9.08331117      2.23009390
  O     37.18573075     47.69446744     18.44512422
  H     37.92173567     47.11710814     18.66088568
  H     36.40327587     47.16554471     18.27306287
  O     40.64443995     47.21055383      3.00554084
  H     40.45191812     47.99259021      3.52799128
  H     40.79507718     46.46390191      3.58985183
  O     25.80056333     12.07167778     24.25859779
  H     26.43082592     12.76833858     24.06103057
  H     25.96341071     11.31988190     23.68424277
  O      4.33502986     36.31937911      1.17528622
  H      5.02490046     35.96354272      1.74013930
  H      3.62969613     36.67866979      1.71843863
  O     20.40797835     49.52631352      7.40747401
  H     19.94919180     49.67962847      6.57825183
  H     20.88256931     48.69307869      7.36183255
  O     28.36529189     47.72980304      8.41655160
  H     27.56926642     47.39202508      8.83350424
  H     28.90808248     48.17211074      9.07331813
  O     34.22213332     24.27130427     20.70333105
  H     34.33177730     24.12327954     19.76117029
  H     34.41529991     25.18909575     20.90813698
  O     45.48094989     46.17696808     12.24411649
  H     46.29219266     45.89079710     11.81798113
  H     44.86300102     46.48995282     11.57945135
  O     32.04948454     23.13018521     21.29496535
  H     31.90130292     22.98237101     20.35805917
  H     32.84351014     22.66651490     21.57088779
  O     12.16075120     15.27979005      6.66603245
  H     12.58624226     15.19975403      5.80920598
  H     11.86678331     14.41445155      6.95992384
  O     31.06430413     19.12578436     17.14036367
  H     31.31027771     19.50521051     17.98720061
  H     31.05827185     19.81358652     16.47066836
  O     48.21578533      1.76521740     12.02479610
  H     48.63329627      1.08588466     11.49020125
  H     47.78689192      2.40520849     11.45202926
  O     43.70752486     31.64262796     17.04698492
  H     43.49883316     30.78951383     17.43459820
  H     44.40147886     32.06563533     17.55795714
  O     25.98715666     41.67366504     12.08999189
  H     26.33248902     41.36915594     11.24760257
  H     25.20311743     41.16812727     12.31651794
  O     42.57668141     22.93891248      0.05851876
  H     42.14518124     22.28994179      0.61909405
  H     42.23081768     23.81262663      0.25499234
  O     37.83007841     16.46020852      4.24009794
  H     37.42879664     17.30296736      4.01575338
  H     38.43588441     16.19807225      3.54304438
  O     20.34935492      5.34517728     18.79985579
  H     19.74328524      6.01823625     19.11808710
  H     19.89357243      4.77055163     18.18044664
  O     33.35594466      1.43587025      2.89780336
  H     32.44919294      1.75113447      2.89467566
  H     33.58034691      1.09685522      2.02814110
  O     29.56394023     48.06990427     25.43087941
  H     29.34943220     47.98455901     26.36270691
  H     28.77606096     47.91379995     24.90506795
  O      1.40020933     41.47449945     17.55952834
  H      0.70708779     42.02170574     17.93602244
  H      1.94273969     41.11422802     18.26484055
  O     27.88280600     23.46228021     18.18088540
  H     27.98494232     22.77280337     17.52074158
  H     27.86489943     24.31941308     17.74891015
  O     31.16845831     45.92820050     23.65126137
  H     31.44522442     46.17609160     24.53644526
  H     30.21271382     45.84125872     23.62689738
  O      2.18775177     36.37126726      4.97899424
  H      2.94532845     36.55913696      5.53790618
  H      1.39155338     36.71190775      5.39327940
  O     42.18535624     34.66019494     23.66161172
  H     41.35283568     35.13792180     23.64468358
  H     42.02200099     33.73922113     23.87776517
  O     43.11192732     47.70381550      3.81160887
  H     42.28933234     47.67571979      4.30572236
  H     42.93081196     47.94965466      2.90146584
  O      0.25754976      1.86688001     24.93207032
  H      0.20224352      2.38809993     24.12778739
  H      0.81877834      1.10284392     24.78083762
  O     18.85697622     33.73928722     21.60316458
  H     19.58611490     33.87127843     20.99280803
  H     18.05443408     33.55675037     21.10899214
  O     19.84269380      8.99503953     24.21393145
  H     20.21782491      8.42068351     23.54237221
  H     19.12055465      9.50173561     23.83528368
  O     11.33474270     42.37290376     27.85364302
  H     11.46618965     42.99267213     28.57489808
  H     10.77555934     41.65083265     28.14949314
  O     46.68817187     38.66527713     22.50978970
  H     46.37902619     39.12050059     23.29642846
  H     47.07657598     37.82334585     22.75857471
  O     19.06311503     38.05350214      2.07155067
  H     18.36748718     38.70596999      1.96206275
  H     18.82034861     37.24613236      1.61240091
  O     18.11802036     11.26556745     27.65338201
  H     18.24225759     11.02441147     28.57425600
  H     17.40314201     11.90237834     27.58252418
  O      4.35791203     44.91400817     14.02664553
  H      5.08581219     44.99666866     14.64707167
  H      3.53365279     44.82198892     14.51010098
  O     31.35208146     49.39478953      9.81113003
  H     31.78653111     49.65339484     10.62720405
  H     30.42480591     49.21653685      9.98429477
  O     28.72422192      0.59278592     13.54650227
  H     29.27387973      0.02958213     14.09630022
  H     27.95269224      0.87235835     14.04468016
  O     22.90184687     16.78995267     16.68070900
  H     22.95099950     16.51256194     17.59844448
  H     22.43789018     17.62846594     16.62379075
  O     17.65647132     42.59354499      1.27629663
  H     16.90125532     42.60754969      0.68379965
  H     18.00854315     41.70180117      1.32567665
  O     23.10650796     45.64519100     19.37914140
  H     22.49140897     45.40889912     18.68098713
  H     23.38374893     44.85225840     19.84389440
  O     22.32040522     40.67960350     13.54514373
  H     22.42344500     39.96254218     12.91521845
  H     22.32671055     41.51889703     13.07915380
  O     27.66744780     16.77784031      4.18341792
  H     27.98441480     16.08397215      4.76623771
  H     27.11509458     17.38601813      4.68003211
  O     46.24410824      5.37967126     22.70188275
  H     46.23448998      4.66015308     23.33733620
  H     45.38224554      5.80208900     22.68301628
  O     26.75291403     13.19507017      5.10836593
  H     26.58619832     13.09586721      6.04855987
  H     26.60080359     12.35688611      4.66574882
  O     41.26722819      0.81412971      3.20759676
  H     41.44882095     -0.11395525      3.04242298
  H     42.05697282      1.33122063      3.03289587
  O     38.22351515     15.58274649     14.94863088
  H     38.93868668     15.86011854     14.37140092
  H     38.16305225     16.18321522     15.69521078
  O     47.23748778     35.03809470     24.70524173
  H     47.89470814     34.76460603     25.34934216
  H     46.38221448     35.11739002     25.13398389
  O      9.76457394     38.49637547      8.90009212
  H     10.50688461     37.95388020      8.62391512
  H     10.06534282     39.39407811      9.05905143
  O     35.46474601     26.59804503     22.41384192
  H     35.51062627     27.15085148     21.63032419
  H     34.70077784     26.84851048     22.93845577
  O     32.74025661     28.39606884      0.54592908
  H     33.56699828     28.54595091      1.01029271
  H     32.19826692     27.78192971      1.04660893
  O     34.12986721     10.35339923     14.61625924
  H     33.83786380      9.82368273     15.36173522
  H     33.52605498     10.23092269     13.88004576
  O      0.63879631     26.61124421     20.76693257
  H      0.11639543     26.08221349     20.15962390
  H      1.54334903     26.66370164     20.44970618
  O      5.54964895      5.78235130     18.57392050
  H      5.67073305      4.86449735     18.31998591
  H      4.71431612      6.10344674     18.22647729
  O     46.20354158     28.27926004      4.51181284
  H     47.12486317     28.26233400      4.78103401
  H     46.14151840     28.10251192      3.57026452
  O     47.72305707     15.08761281     27.00380988
  H     48.65213658     14.85664117     26.93265250
  H     47.39879733     15.37873552     26.14841337
  O     27.37195820     25.80704982     22.66474168
  H     27.03860381     25.92111549     21.77173335
  H     26.67580457     26.00737552     23.29469386
  O     34.04698341      4.93032027     13.77633689
  H     34.09927887      5.38385892     12.93184421
  H     33.53513271      4.12436832     13.67608565
  O     41.13749668     43.18917525     12.06605707
  H     41.54491933     44.04632124     11.92146268
  H     41.39832219     42.58795270     11.36455760
  O     27.51226728     23.32744177     28.17302559