5100
Energy =      0.00000000 au
  O     16.44432884      2.55969244     25.48170130
  H     16.63155062      1.63803928     25.28907869
  H     16.81960961      3.11359604     24.79325729
  O     29.49895337     48.62975985      3.99119241
  H     30.44240644     48.69993332      4.15420159
  H     29.30135827     47.76723517      3.61889232
  O     49.06210174     36.55954233     12.34628851
  H     49.67049930     36.16864532     12.97767740
  H     48.32657744     36.95990861     12.81566133
  O     33.58290885      6.28028851     18.95493885
  H     33.31454267      7.11422995     19.34752169
  H     32.96422206      5.59208775     19.21029422
  O     42.75334602     28.89011623      0.05457153
  H     43.20160520     28.93451872      0.90232864
  H     43.23918560     28.30850533     -0.53474050
  O     17.00015572      1.57839522     17.27279138
  H     17.68597665      1.02539935     17.65416418
  H     16.16154826      1.38937597     17.70011942
  O      8.86581824     15.30163929      9.42854611
  H      8.84627059     16.11412409      8.91758002
  H      8.84809847     15.51159303     10.36513858
  O     11.82116083     43.73638255     18.46852102
  H     11.50526551     42.98439894     18.97481224
  H     12.78112596     43.73671305     18.46034514
  O     36.21791078     22.64929332     29.51840706
  H     35.55977278     21.97982685     29.71907845
  H     36.24802281     23.29261295     30.23032920
  O     21.13882851      9.69361698     26.26539431
  H     21.79158650      9.63492925     25.56392246
  H     20.35115339      9.20699359     26.01169059
  O     41.41070185     38.88468423      8.64899288
  H     41.95541659     38.87111404      9.43937362
  H     40.49482384     38.72489167      8.88822879
  O     16.48477038     41.73139588      4.44158635
  H     16.76713594     41.25292300      3.65868573
  H     15.90481341     41.17426513      4.96585273
  O     26.46792857     49.38914552      8.59979359
  H     26.21673810     49.98389729      9.31026786
  H     26.56561856     48.49921181      8.94631150
  O     46.91048564     41.42243602     11.67834525
  H     46.65525443     42.32278519     11.89242096
  H     46.17373345     40.83122218     11.84940787
  O      6.56711262     16.16345286     24.31832670
  H      6.36936698     16.51174258     25.19078927
  H      7.31923970     15.56941645     24.37333219
  O     33.02727230      6.68379716     11.01792508
  H     32.87556204      7.63069075     11.06238333
  H     33.81832993      6.50984519     10.50259165
  O     20.79265492     11.46941025      7.13150424
  H     20.50594933     12.11172728      6.47818292
  H     20.77042859     10.58987438      6.74741749
  O     35.78669366     23.52796195     12.32809319
  H     36.03580311     24.20752207     11.69742487
  H     35.67910942     22.69059190     11.87110629
  O     48.51184603      6.75333713     24.97756743
  H     48.38161574      7.37903022     24.26122377
  H     48.40051085      5.85921350     24.64628596
  O     19.51479680     11.77312783     17.43628802
  H     19.21586543     12.48919984     18.00151445
  H     19.85653939     11.05830041     17.97835237
  O      5.08277084     27.93913283     28.61946826
  H      4.43846417     27.43786910     28.11429147
  H      4.83467287     28.86650563     28.62467282
  O     31.62824799     26.48537349      9.19089590
  H     31.04294770     27.20999188      9.42317107
  H     31.91562182     26.58482563      8.28033258
  O     24.51391333     27.79581549     18.31583141
  H     23.88401009     27.82283469     19.03977331
  H     24.22777002     27.14969234     17.66602615
  O     27.32654863     28.91091391     29.63575691
  H     26.48264465     29.34949866     29.50510665
  H     27.88579366     29.05724109     28.86931490
  O     15.66069647      5.63695969     24.64674290
  H     15.23210291      6.42202432     24.99542769
  H     16.53272635      5.86722652     24.31789478
  O     17.77407735     43.35576379      0.64618374
  H     17.38606266     44.17671556      0.95776485
  H     17.12588736     42.65050196      0.70986644
  O     44.90610527     43.18599584     26.83240060
  H     45.49465064     43.57432404     26.18092875
  H     44.09404864     42.90569693     26.40391892
  O     44.47195498     24.55117040      7.51634872
  H     44.46211917     25.32181762      8.08871759
  H     44.95692053     24.75465493      6.71322826
  O      9.36332832     33.64104038     18.19143453
  H      8.66473186     33.11518543     18.58771670
  H      9.48540727     33.37489988     17.27717747
  O     42.90539063     18.60303630      0.25525794
  H     42.01051295     18.90150143      0.07717788
  H     43.50583394     19.35122390      0.21943682
  O     38.59280990     39.99555968     18.54590458
  H     37.87321627     40.61127016     18.38878803
  H     39.07340447     40.25874498     19.33417000
  O     25.48339857     20.26324702     15.81830222
  H     25.03135595     20.49761443     15.00446600
  H     26.43175007     20.34354018     15.69267398
  O      3.82092808     46.88095401     12.17974215
  H      3.15960817     46.54465406     12.78896980
  H      4.63854945     46.39044987     12.29154992
  O      3.96859095     20.51040756     18.82253973
  H      3.91066088     19.72465067     19.37101965
  H      3.38601796     20.41632496     18.06533620
  O     38.53299539     20.42250855     29.77246071
  H     37.94156343     20.96256208     30.30175309
  H     38.91042609     19.72989956     30.31967077
  O      5.49234510     41.99214638     14.82301992
  H      6.07824641     41.81776678     14.08280953
  H      4.61310722     41.66464698     14.61983306
  O     31.36695016     11.55525971      1.45989873
  H     30.44453267     11.56275231      1.72577434
  H     31.62728681     12.43625562      1.18120351
  O     43.79931512     14.08763309     18.45974228
  H     43.47103483     13.18578859     18.48229352
  H     43.35577264     14.60707423     19.13431694
  O     14.51990234     37.23058369     27.69153229
  H     14.05838346     36.81197102     26.96121472
  H     13.89086364     37.45711116     28.38044130
  O     19.09160321     30.99302415     17.46192629
  H     19.16677097     31.94422601     17.56759008
  H     18.95707408     30.58487726     18.32036559
  O     48.93981251     12.48979849     25.54546391
  H     48.40584387     12.08701194     26.23411513
  H     48.52323481     12.34728644     24.69237931
  O      1.03586114      8.21267495     18.14384485
  H      0.92218434      7.29744020     18.41034613
  H      1.93592867      8.34815198     17.83868193
  O     24.45127959     11.13839210     20.44192313
  H     23.64475563     10.97175194     19.94861779
  H     25.16051307     11.35578564     19.83255632
  O     47.18026875      7.27284453     26.37812983
  H     47.50576188      8.04300017     26.84984428
  H     46.29476465      7.06117763     26.68256311
  O     39.41608581     35.16934734     29.91620825
  H     39.34314522     35.78553377     29.18368252
  H     38.53881503     34.94672918     30.23626629
  O     37.19608559     10.81199936     19.44839112
  H     36.43183242     11.04571353     19.98026966
  H     37.93458417     10.60041822     20.02411090
  O      2.85244204     33.79642932     28.70107520
  H      3.61768827     34.21165454     28.29661725
  H      2.25471600     33.48933031     28.01549969
  O     15.55717113     23.31086604     15.11051540
  H     15.71985101     22.41657019     15.41933606
  H     15.50858889     23.31494495     14.15175415
  O     31.78094977     20.09670315     14.46487077
  H     32.27530381     20.83221159     14.09576182
  H     31.29534502     19.65370296     13.76520024
  O     23.21691225      2.70614412     11.62330551
  H     23.54340852      3.40004041     12.20080713
  H     22.82998165      2.00464196     12.15224732
  O     41.94120797     27.28051086     16.04053651
  H     42.55794798     26.56267668     16.20161369
  H     41.69760581     27.68710738     16.87536419
  O     30.08611958     26.43420468     28.92412894
  H     29.82525033     27.20471093     28.41435707
  H     30.32820753     25.72215907     28.32748459
  O     45.59438408     17.87130952     18.98537243
  H     46.31621531     17.59760458     18.41471905
  H     44.90546969     18.28061617     18.45672789
  O     45.16468496     21.34294209     -0.16580793
  H     45.31206328     21.31093047     -1.11388751
  H     45.83905892     20.82601126      0.28096077
  O     48.48244610     26.78462442     10.42260058
  H     49.43766910     26.78845977     10.32702693
  H     48.23358842     27.32519586     11.17589493
  O     25.95255665     37.71796589     28.99936685
  H     26.39663544     37.85344226     28.15910487
  H     25.13500121     37.23573096     28.85565681
  O     25.90706794     11.76461411     28.89458979
  H     26.56353954     11.06973248     28.98281993
  H     25.67666930     12.10006718     29.76406532
  O     29.33308930     29.77975254      9.77135327
  H     29.05071210     29.67993847     10.68343894
  H     29.86268727     29.02119126      9.51501213
  O     24.47508209     15.37597410     30.08262354
  H     24.25413991     15.08111488     29.19614590
  H     25.17320880     14.82224440     30.43983848
  O     24.67812589     26.08258477     20.60192928
  H     24.78848335     25.63246622     21.44265190
  H     25.43042072     26.65802839     20.44534982
  O      2.49799599     11.13053236     20.37389764
  H      1.77749230     11.70510329     20.64286358
  H      2.79314039     10.61287894     21.12657600
  O     33.63531681     39.86666389     26.68589803
  H     34.15568436     40.66036759     26.54149565
  H     32.97772982     39.78384226     25.99140546
  O     13.21715909     27.96699476      1.23189069
  H     13.78633280     28.04632312      0.46289895
  H     12.48736436     27.37657810      1.03087374
  O     42.80437239      3.31107983     28.72879254
  H     41.87989275      3.10121466     28.88010024
  H     43.25716121      3.39002524     29.57161513
  O     19.10239884      3.26542030     19.92391011
  H     19.96620761      3.55011626     20.23112765
  H     18.70704665      2.68147816     20.57529957
  O     32.96970483      8.50173060      9.17355056
  H     33.74106708      8.53399842      8.60297273
  H     32.17605083      8.61948330      8.64643802
  O     27.42100669     34.64878031      2.15641342
  H     26.85519921     34.48050730      1.39934929
  H     26.91757195     35.09832914      2.83909878
  O     21.20959195      3.51538246      8.43819367
  H     20.71236299      2.70736629      8.29165620
  H     20.84444864      4.21900792      7.89673122
  O     36.86574303     20.48858340      3.66536232
  H     36.49430613     19.79827117      4.21953167
  H     37.23743216     21.17893639      4.21931171
  O     24.11325626     36.81719158     26.88921692
  H     23.34973324     37.39254883     26.97637567
  H     24.27057931     36.63196828     25.96048564
  O      4.25663464      6.85151973     17.33396428
  H      3.98493042      6.17649845     16.70776695
  H      3.53754595      7.03055339     17.94425798
  O      2.77364577     44.09180635     23.54493642
  H      2.19785191     43.35198697     23.33822713
  H      2.52910429     44.45982917     24.39720321
  O     35.46488061     43.51994581     14.60572086
  H     35.02316220     43.56167152     15.45703973
  H     35.95508630     42.69723646     14.53902977
  O      1.37130540     35.49640535     18.00631481
  H      1.60037472     34.73349948     18.54213371
  H      0.57414354     35.30853553     17.50547761
  O     25.51992703      9.15437404     20.99871232
  H     25.11306336      8.44019497     21.49470651
  H     25.07016448      9.25663560     20.15677633
  O     17.25973554     22.51364043      4.48684651
  H     16.83502171     23.36296456      4.34589732
  H     17.37231587     22.06786760      3.64410559
  O     37.05991121     39.95026060      4.38687408
  H     37.27577320     40.39282887      3.56277644
  H     36.35747308     39.31390864      4.23443767
  O     24.06866399     14.41336479     18.71371636
  H     23.82046180     13.72543430     18.09182625
  H     23.89891298     14.11218866     19.60930418
  O      1.36536749     46.00187993     17.40581453
  H      0.94752971     46.86555276     17.43869050
  H      1.61672839     45.73353455     18.29261127
  O     39.21884040      1.15642042      9.22016914
  H     39.84757111      1.55004769      8.61077988
  H     38.77984183      0.41655805      8.79415983
  O     14.27854620     25.22496162      1.21457825
  H     15.11514629     24.76831369      1.32935182
  H     13.92415877     25.46534245      2.07377940
  O      5.13011189     33.14855865     27.32126007
  H      4.39972987     32.55391783     27.13539885
  H      5.11215262     33.88162501     26.70167055
  O     19.35607552     26.99000235     11.39625024
  H     19.29584685     26.51168153     12.22641992
  H     18.53411601     26.89262083     10.90993818
  O     41.54796660     47.30734371     27.81934701
  H     41.74163576     48.23275542     27.65289749
  H     41.22199406     46.89833604     27.01432861
  O     42.89589144     48.89464249     17.57606068
  H     42.66688408     48.58697847     16.69600472
  H     43.49445132     48.26788604     17.98898008
  O      3.72496733     18.06613483     17.17690325
  H      3.02898392     18.08883296     17.83772993
  H      3.35230421     18.25425831     16.31241972
  O     49.37867637     40.30216456      9.77088375
  H     48.83370000     39.79199331     10.37447803
  H     49.55733899     41.16503821     10.15184139
  O     26.68278286     35.03636624      4.88090382
  H     25.80841414     35.43145114      4.84948296
  H     27.15514935     35.36424674      5.64964583
  O     25.96321121     32.57582301      5.12321945
  H     25.47616766     31.84296044      5.50701762
  H     25.93690952     33.32629149      5.72130413
  O     21.95896532     26.39505627      2.83020160
  H     22.27772438     25.49329469      2.91277710
  H     22.61257297     27.00005627      3.18849206
  O      9.84682859     37.57271799     25.89313339
  H     10.39192203     37.11461673     25.24922628
  H      9.03843545     37.87413236     25.47212281
  O     33.27496374     12.78663187     30.15923015
  H     33.04074581     12.15952078     30.84732436
  H     32.48064930     13.21576464     29.83287200
  O     35.07700598      4.99975331     17.21089713
  H     34.17033273      5.31126557     17.16085977
  H     35.34418094      4.93759564     18.13087211
  O     11.51845696     39.73792973     22.84112179
  H     11.88516386     39.11183422     23.46971583
  H     11.50187313     40.61379792     23.23377928
  O      1.74335794     26.95755493     26.55443181
  H      2.21972452     26.38163484     27.15691909
  H      1.50021253     27.76696004     27.00978188
  O     31.28720550     29.25649983     24.63664311
  H     32.15515284     29.14949842     24.24064044
  H     31.31187277     28.95715622     25.54844623
  O     30.42564472      0.88713160     27.01529399
  H     29.46751019      0.93401984     27.05243858
  H     30.69446924     -0.00846415     26.79794259
  O     31.28635925      8.77200155     28.38839792
  H     31.66633123      9.63832465     28.22497951
  H     31.27122418      8.26928590     27.57068898
  O     34.04816002     17.78401894     16.32313113
  H     34.63351290     17.54511096     15.60071505
  H     34.12399969     18.72465432     16.49935098
  O     28.21295889     19.70068627     11.39841551
  H     28.96462491     19.86144029     11.97352971
  H     27.55867725     19.17581589     11.86534871
  O     20.59747014     28.53162963      3.33350474
  H     20.34203390     29.26868598      3.89305837
  H     20.80678109     27.77124346      3.88086368
  O     45.78509697     35.66094046      4.44227087
  H     44.88996680     35.58211604      4.10444147
  H     46.36400726     35.06828982      3.95726769
  O     12.04021182     48.20318662     17.19664395
  H     11.43003477     48.93982339     17.11509493
  H     12.33970322     47.93706222     16.32424341
  O     14.52090731     43.73706789     12.18255794
  H     14.81654494     42.93154387     12.61305701
  H     14.94576477     43.81680471     11.32538925
  O      1.45315639     13.97586713      0.33667659
  H      0.78002252     13.34962183      0.61291491
  H      1.08080930     14.58367762     -0.30638178
  O      4.50969850     10.46316336     17.63870503
  H      4.99176748      9.80441767     18.14394123
  H      3.86796035     10.89602924     18.20650718
  O     22.61257538      2.16724580      7.15480917
  H     21.89867696      2.45381913      6.58050543
  H     23.43073316      2.12845634      6.65409646
  O     16.69279537      7.96290753      6.82734268
  H     16.88695715      7.61788990      7.70190774
  H     16.04599198      7.39912577      6.39676689
  O      3.04265935     28.92267279     19.28862559
  H      2.64999175     29.02157297     20.15904556
  H      2.83462659     29.69233569     18.75389071
  O     19.39520288      8.17306634      4.01982383
  H     20.11288185      8.52404822      4.55212884
  H     18.59954257      8.11383537      4.55369308
  O     48.47784584     46.73450874     15.43459317
  H     49.08599043     47.14864904     16.05123567
  H     48.04303053     47.41095069     14.91022504
  O     47.08767150     11.25591619      2.02820395
  H     46.99146623     10.30092390      2.04648732
  H     46.89784449     11.58026176      1.14482087
  O      8.77944678     41.07037077     17.28718396
  H      9.06712883     40.74254492     18.14238526
  H      8.66316463     42.02227264     17.33147053
  O     17.65147527      8.23726150     22.76572079
  H     17.54688763      9.08173747     23.21015498
  H     18.58584168      8.03647698     22.67491880
  O     39.41840902     22.89301258     26.94926540
  H     39.68595602     23.64031891     27.48922082
  H     39.15941260     22.16368789     27.51724986
  O     34.81558907      9.83402366     21.17611060
  H     35.69309096      9.45122123     21.24719314
  H     34.86186188     10.77651804     21.35264156
  O     40.73394819     39.96592385     28.20742552
  H     41.13072709     40.57390669     27.57931457
  H     39.92313838     39.60798778     27.83854989
  O      7.03893908     49.43335800      3.35032581
  H      6.13312356     49.30926758      3.64307112
  H      7.43724866     48.57877508      3.16966726
  O     33.21228138     32.56715690     27.98947568
  H     33.26494302     33.28608186     27.35546176
  H     32.84071072     32.89246414     28.81270739
  O     32.37458275     35.59939513     26.97555947
  H     32.43761339     36.51864138     27.24502833
  H     33.20244599     35.32571610     26.57388516
  O     27.02423153     37.49495381      7.12066764
  H     26.70235776     38.39815189      7.16789578
  H     26.36882664     36.94344369      6.68721520
  O     11.94309039     16.00742480      6.32650541
  H     11.61698840     16.31621057      5.47803099
  H     12.89915597     15.92751610      6.29254661
  O      8.93690328     29.69712376     19.95185292
  H      8.43807884     30.38057125     20.40536555
  H      9.36700627     29.13218251     20.59795880
  O     14.68678606     16.92071344     12.40254681
  H     14.06452347     16.94006620     11.67178369
  H     15.39365079     16.30183860     12.20522429
  O     18.75572859     19.29858008     17.71363554
  H     19.31549691     19.71625783     17.05499700
  H     18.29380717     18.55617029     17.31733222
  O     23.46082460     41.60325994     24.48404089
  H     24.19026304     41.44353157     23.88071145
  H     22.92886316     42.33271009     24.15766759
  O     40.12445656     26.18800438     11.45935919
  H     40.94210465     26.64317765     11.24518895
  H     39.70563367     26.61721415     12.20900335
  O     20.34590834     25.08493940     10.12388709
  H     20.24104295     24.86251744      9.19591525
  H     20.74982119     25.95233516     10.20185502
  O     41.59617844     34.15933969     10.47138739
  H     41.10109067     33.54785659      9.92131782
  H     41.16665334     35.01784769     10.46289006
  O     24.18559038     33.22655042     21.65395988
  H     24.71131917     32.49041633     21.33253205
  H     24.19024646     33.93205297     21.00292648
  O     17.31965727     18.94752168     13.57814186
  H     18.11348986     18.40810356     13.59954106
  H     16.82955059     18.82897719     14.39505229
  O     12.56920596     22.54581104     29.05150189
  H     11.99991007     22.78191693     29.78754278
  H     12.07691326     22.61582144     28.23031589
  O     10.73109130      7.81253116     16.48332672
  H     11.52102328      7.27198362     16.40973437
  H      9.95568856      7.27085886     16.31918741
  O     43.08587373     31.77858127      0.42388152
  H     43.64823353     32.31620022     -0.13853943
  H     43.41543601     30.87704274      0.43861207
  O     27.76346405      7.88226622      7.16633169
  H     28.32124358      8.53181058      6.73208047
  H     27.84748964      7.97295384      8.11833771
  O     16.25795207     13.22290354     14.85856994
  H     17.19326255     13.01016910     14.81934813
  H     16.14500452     14.10637972     15.21677756
  O     34.91723138      0.45537475      8.44290499
  H     35.66268934      0.94612947      8.08927773
  H     35.15921336      0.07006550      9.28823421
  O     18.06096978     31.39045780     11.96395674
  H     17.70191095     32.09426008     12.50924484
  H     18.11495265     30.58199584     12.47881121
  O     38.95640294     40.32547212     11.85266221
  H     38.37643914     39.59753865     12.08793838
  H     39.37477597     40.14186999     11.00835524
  O     43.77201039     35.51245485     18.60641139
  H     44.70811546     35.67285495     18.46648601
  H     43.28498213     36.33075263     18.48478809
  O     33.42211356      6.77490305      3.90948787
  H     33.63444016      7.16094792      3.05655951
  H     33.17409247      5.85496044      3.79205219
  O     39.58172055     23.70264069     14.71385417
  H     38.65330202     23.48907385     14.83229509
  H     39.88464362     23.35848190     13.87041340
  O     32.52707614     46.35733880     10.59452044
  H     33.45172006     46.26920911     10.83714522
  H     32.45281807     46.44504069      9.64142332
  O     18.63968625     14.96985137     15.39509632
  H     18.15424381     14.35301757     15.94778222
  H     19.12760298     15.58226010     15.95051761
  O      5.11772071     32.20652981      0.07731376
  H      4.46155025     32.16241034      0.77666618
  H      4.70689516     31.98630419     -0.76192580
  O     36.63565905     10.08780492      3.74370209
  H     37.20276926      9.42065013      3.35014078
  H     36.52972776      9.90629846      4.68041655
  O     18.38230841     41.89179573     26.16139720
  H     17.69914041     41.73087220     25.50642766
  H     19.24538651     41.74988577     25.76572338
  O     41.96829179     39.73910872      4.68605968
  H     42.22453967     40.01738768      5.56838493
  H     42.05494239     38.78583162      4.61288547
  O     19.19052377     19.27009626      9.79697121
  H     19.89829013     18.93641056      9.24080520
  H     18.48006774     19.60506611      9.24502245
  O      8.29434764     11.77515231      8.86597849
  H      8.37542389     12.02369892      7.94226250
  H      7.40710748     11.97326490      9.17445264
  O     44.84580876     46.24568572     25.96082590
  H     44.76746245     47.20155945     25.91878691
  H     45.77351010     45.99922321     25.94577720
  O     11.78017394     47.22153027     25.35146829
  H     11.45293237     46.56851587     25.97443310
  H     11.94890221     46.80078819     24.50523731
  O      6.14470445     40.16301789      8.51113632
  H      5.33200429     39.69027242      8.70512128
  H      6.29903858     40.15964801      7.56362926
  O     18.68598315     27.17382586     17.58779488
  H     18.59545256     27.21577950     18.54259544
  H     17.99783169     27.70240429     17.17712175
  O      7.05593654     42.62350026     19.91286250
  H      7.75962074     42.90596621     19.32409977
  H      6.21481867     42.67022517     19.45249577
  O     20.56031629     13.73343653     19.29047616
  H     20.54883790     14.40397568     19.97738627
  H     20.72779001     12.87409381     19.68428151
  O      8.64181451     11.54704615     29.66720360
  H      8.59019569     12.31363247     29.09163353
  H      9.10302332     10.83703555     29.21468689
  O      7.91466308     31.17532220     24.49782014
  H      8.62677623     31.41559536     25.09511712
  H      7.43634592     31.96519167     24.23529599
  O     49.62963114     43.60587706     29.69417374
  H     50.45101346     44.10200082     29.72232165
  H     49.51256924     43.22926250     28.81892636
  O     10.05765019     31.18431327     18.53390521
  H      9.11917166     31.02741450     18.40646573
  H     10.19213559     31.68371205     19.34267869
  O     29.80507846     29.97359904      2.91366781
  H     29.87914187     29.01833418      2.85380401
  H     29.66153751     30.33940269      2.03777758
  O     19.13429000     29.43646628     25.01881684
  H     19.86023395     29.41767851     25.64671206
  H     18.34687339     29.07053832     25.42829434
  O     38.68812882      6.71595729     12.61035278
  H     38.74768476      7.18596197     13.44530709
  H     37.92030826      6.13981628     12.62098912
  O      0.32407139     31.72659549     27.24078562
  H      0.54285542     32.47484530     27.80101393
  H      0.17213205     30.95142108     27.78633038
  O     10.33681312     10.54214563     24.49884094
  H      9.53612146     10.84589134     24.93269738
  H     10.31227811      9.58624149     24.41372158
  O     26.73601588     15.34672431     17.82374778
  H     26.95734921     16.23408328     18.11564779
  H     27.32847220     15.08540187     17.11501223
  O     33.68563252     30.65612819     13.22322388
  H     33.53670374     30.45544446     12.29632244
  H     34.62062129     30.57057664     13.42341610
  O      1.17640554     15.12817998     22.75496948
  H      1.07352504     15.82474073     23.40751735
  H      1.58252121     14.36151359     23.16593506
  O     14.91203649     27.89709472      9.21792137
  H     14.99637926     27.33959258      8.44095441
  H     14.06360026     28.34589882      9.19973228
  O     33.87606122     25.04958179     29.88804241
  H     32.92289728     25.13060589     29.80733555
  H     34.29125639     25.87381862     29.62375731
  O      3.39162880     13.98226154     11.62219409
  H      3.81323550     13.12049231     11.65685783
  H      3.06977613     14.14600371     10.73270021
  O     24.63024298      2.52436638     17.28422206
  H     24.18592161      3.36924661     17.38598611
  H     25.22184109      2.56231852     16.52912518
  O      2.86143413     24.89545840     18.96903283
  H      2.95286926     25.39332647     19.78473314
  H      3.71663589     24.54428722     18.71036558
  O      2.03432051      2.49898591     15.27687404
  H      2.84082249      2.05233473     15.54456280
  H      2.23172747      3.41234860     15.05687612
  O     33.21853338     26.11490497     20.99651754
  H     33.68918488     26.64455741     21.64424856
  H     33.84883282     25.69814209     20.40437624
  O     45.31687301     43.84253549      4.60285728
  H     46.11378545     43.75630426      5.13115145
  H     44.55562757     43.92370031      5.18209614
  O     20.30508099     34.11522967     17.41768338
  H     19.70875636     33.93684390     16.68681031
  H     20.82658494     34.89717550     17.22224963
  O     42.08486629     15.82867566      2.86747776
  H     41.31003480     15.61508558      3.39246866
  H     42.81120186     16.06423755      3.44932589
  O     39.62069982     28.32019147     28.50600730
  H     40.02294939     28.72843075     27.73585409
  H     38.69439840     28.56790395     28.55295641
  O     13.22592199     43.27613377     23.13175849
  H     13.67999229     43.10629161     23.96035599
  H     12.28122249     43.15665121     23.25368792
  O      4.31683579     19.98361341     14.14293508
  H      4.87207963     20.74647101     13.96586855
  H      3.40636586     20.26812936     14.25107930
  O      7.15605381     33.35736928     28.47533389
  H      7.32974463     33.58795296     29.39090075
  H      6.67826337     32.52548554     28.43947659
  O      1.13669025     40.82369133     22.62918054
  H      0.41392896     40.90191997     23.25615455
  H      1.93658021     40.56526281     23.09285148
  O     42.35330901     20.40929988     11.77165981
  H     42.44331787     20.26788771     12.71691163
  H     41.55366556     20.91110777     11.59742089
  O     11.76308817     49.87366475      4.04499604
  H     12.50876649     49.61469316      4.59134533
  H     11.03976080     50.16266795      4.60613299
  O     42.96496935     37.65303121     24.40899202
  H     43.90235904     37.83090168     24.30286630
  H     42.55927670     38.36223367     24.91302114
  O     41.49624928      8.88674256      3.04881084
  H     41.74803246      9.54025001      3.70541821
  H     42.18974456      8.81148008      2.38926564
  O      1.72771015     23.79121670     13.25686018
  H      1.59805143     23.17107614     12.53560135
  H      2.55461655     23.59509697     13.70336086
  O      0.59146661     12.36146886     28.40052935