5100
Energy =      0.00000000 au
  O     27.53107793     25.97557898     28.51545791
  H     27.29912092     26.84059732     28.16971348
  H     26.90673212     25.32268210     28.19062259
  O     13.67697465     48.94861270     24.30663365
  H     14.37801065     49.39352029     24.78851099
  H     13.23313111     48.32683157     24.88800371
  O      7.60582425      5.41086423     27.15631299
  H      7.48122314      6.33186442     26.91582764
  H      6.75662771      5.01805832     27.37118218
  O      8.20786875     33.98877545     12.14652437
  H      7.45837412     34.10002756     12.73599936
  H      7.90829348     34.03241313     11.23550822
  O     17.54213937     47.96042105     13.00197345
  H     17.95325989     48.29080150     12.19983339
  H     16.78056994     47.42241825     12.77357689
  O     25.23783052     39.35201378     18.78311972
  H     25.88996889     39.73497072     18.19179956
  H     24.53556138     38.94864970     18.26764374
  O     38.53177313     21.16185946     29.40644301
  H     39.15821791     20.50891803     29.72712112
  H     38.90704004     21.62281320     28.65258865
  O     40.50654977     21.56242702     17.78100133
  H     40.69859111     22.32440825     17.22954442
  H     40.02600453     20.90856264     17.26803189
  O     29.17881844     42.62157793     23.44979264
  H     30.07915589     42.47896854     23.75088238
  H     28.64698235     42.95482540     24.17621986
  O     30.45425509      8.49403564      2.04739335
  H     30.14375263      7.67035265      1.66433390
  H     30.78480291      9.06662081      1.35134424
  O     14.66993654     48.34690479     29.24799758
  H     15.46907082     47.92627040     28.92234269
  H     14.80478764     48.63263756     30.15451398
  O     45.50291205     32.48532741      1.06803960
  H     45.71935365     33.32402974      1.48196162
  H     44.86610311     32.01491140      1.61097896
  O     48.97346996     36.90781651     29.18341549
  H     48.59646751     36.02843603     29.26189554
  H     48.87755685     37.37321239     30.01756618
  O     17.64526894     19.22663636     24.28277899
  H     18.33367037     18.76701453     23.79651647
  H     17.18548377     19.82988590     23.69431693
  O     31.13559004     19.04611106     17.02638075
  H     30.59377748     19.83233410     16.92691979
  H     31.88165749     19.09276906     16.42404662
  O     47.89484502     20.25826417      1.73438582
  H     47.72509490     19.44176966      1.25886335
  H     48.23919855     20.91716542      1.12703931
  O      5.98079785     35.43333275      8.91925450
  H      5.55663948     35.35760888      8.06137597
  H      5.48588385     34.92665266      9.56727875
  O     27.16514742     11.48766803      2.31452151
  H     26.26816029     11.15258455      2.24572364
  H     27.78189693     10.81673584      2.01274338
  O      3.93890498     49.31662713      7.14621350
  H      3.85571131     49.74280620      8.00239703
  H      4.77642197     48.84961774      7.10074352
  O     28.75722630     36.29554762      3.69243121
  H     29.16537150     35.58790291      3.18819271
  H     28.84861726     37.12329499      3.21485192
  O     25.48519907     24.71891356     11.06492731
  H     25.03647127     25.48516609     10.70009800
  H     26.39537601     24.94702113     11.26776930
  O      5.45246507      9.89832676      8.93088215
  H      6.18155937      9.89480497      9.55538924
  H      5.78638280      9.72607029      8.04746454
  O     39.14274044     13.70542186     10.11113455
  H     39.85546886     13.40916157      9.54030354
  H     38.41753790     14.03339449      9.57437089
  O     23.70770239     46.90468349      8.24638481
  H     24.53549404     46.73267775      8.70111001
  H     23.27510698     46.07228390      8.04249238
  O     28.06987578     10.89220477     28.36403654
  H     27.63751984     10.68753970     29.19637094
  H     28.63817553     10.16140545     28.10993469
  O     32.30781347     41.23634860     23.31618101
  H     32.05075714     41.99740664     23.84183556
  H     31.74249590     40.49138173     23.53306904
  O     36.38989350     12.53213437     18.36016448
  H     36.41200316     13.48548898     18.47073642
  H     35.78443250     12.30580978     17.65037989
  O     42.72473629      3.60897383     14.86471980
  H     42.80676633      4.03626467     15.72046136
  H     43.59173412      3.32963761     14.56159271
  O     27.70251324     36.29797399     25.91362916
  H     28.34349898     37.01043356     25.96965279
  H     27.91530275     35.62367629     26.56296977
  O      0.83231340     47.58977663     28.77810241
  H      1.07964455     48.15519401     29.51344620
  H      0.19098516     46.94006036     29.07503146
  O     11.32866124      0.95726515     15.71846588
  H     11.05559067      1.45454775     16.49289631
  H     10.95432757      0.07406718     15.75635578
  O     24.24489679     36.32363213     15.63870676
  H     24.27234856     36.61700754     16.55236822
  H     25.13846861     36.16302212     15.32672305
  O     46.98011682     43.85249499     14.48121818
  H     46.33597728     44.50107535     14.18791325
  H     47.84955012     44.25794302     14.51724096
  O     38.77179285     10.46802039      5.05964579
  H     38.83578233      9.59584388      4.66364896
  H     38.05522257     10.47814834      5.69841371
  O     19.39556607      9.22320878     23.66960694
  H     19.09373069      8.44423182     24.14256604
  H     19.40085839      9.97700255     24.26405369
  O     19.66350325     21.89020576     28.87517461
  H     20.52972651     21.86519422     29.28825049
  H     19.21735071     21.05179833     29.01524926
  O     41.44291214     13.05543191     10.93625614
  H     42.02045520     12.81081567     11.66303459
  H     41.29519004     12.29192230     10.37337847
  O     23.64182062      3.79285623      0.46518946
  H     24.15995927      3.05250479      0.78924515
  H     23.86898573      4.58377395      0.95960342
  O     36.05742548     37.96489641     10.04341051
  H     35.44041201     37.97550100      9.30803175
  H     35.88480070     38.71478673     10.61740110
  O     27.37100440     37.09590603     21.60159259
  H     27.16339517     38.02888837     21.69127185
  H     26.62550484     36.57133953     21.90269124
  O     49.05890469     13.98956021     10.17959313
  H     48.35824891     13.67155491     10.75366117
  H     49.16923472     14.93527888     10.30224503
  O     37.67550999     46.56599623      1.66348240
  H     37.38758856     47.39447517      1.27319546
  H     37.22740710     45.83529260      1.23119081
  O     41.25227166      3.17566660     23.60863587
  H     40.65581614      3.85190437     23.93809498
  H     41.41834616      2.53047798     24.29983115
  O      8.26307549     18.73002794      5.06303563
  H      7.71959892     17.95195339      4.91869845
  H      8.32563826     18.90706436      6.00449408
  O      5.95354003     47.51054266     21.55537600
  H      5.91944145     48.22260989     22.19833599
  H      6.44852540     46.77313640     21.91982285
  O     44.31620917     16.45177250     25.57102419
  H     43.66766640     17.14488471     25.71450845
  H     45.08354565     16.81816291     25.12543154
  O     14.30205067     46.93361929     14.50260465
  H     13.42083537     47.24790146     14.71774719
  H     14.41552715     46.04202702     14.83992692
  O      6.04542159      0.96222446      6.96697191
  H      6.70484207      0.72356964      7.62256973
  H      5.21386972      0.53101094      7.17715374
  O     12.81613931     -0.34874977     29.45486297
  H     13.70911217     -0.65352632     29.63181135
  H     12.22201867     -0.68956222     30.12752004
  O     44.46335800     45.57796900     13.59499209
  H     44.53890569     44.99617674     12.83511689
  H     45.20633784     46.18575358     13.60836591
  O     39.00373524     31.40279828     17.46515356
  H     38.07704495     31.51161237     17.69099553
  H     39.16138258     30.49797072     17.18580716
  O     24.63543452     29.40154734      1.35326177
  H     24.83775743     30.28107023      1.02599288
  H     23.93347077     29.45607612      2.00585162
  O     44.18788423     34.53241693     28.17648949
  H     44.66740394     34.13622993     27.44525990
  H     43.51266954     35.12293064     27.83446802
  O     30.14590194     15.12157683     13.92204500
  H     29.75815304     15.79199670     14.48930861
  H     31.08093256     15.30389295     13.80339181
  O     32.76343513     21.62246856      4.47185437
  H     32.41985738     22.49823738      4.66312204
  H     33.38194864     21.36378041      5.15896535
  O     49.54607769     47.50574872     18.77008843
  H     49.47061800     47.18780629     17.86741548
  H     49.21158343     46.83853880     19.37386365
  O     23.33421960     37.19645612     28.99646426
  H     23.55137390     36.27578645     29.16020607
  H     22.80006661     37.26324352     28.20159318
  O      0.90691967      1.05690177      9.21044705
  H      1.25079715      1.89857943      9.51854930
  H      0.92849416      0.41982096      9.92826499
  O     24.05648416     16.05370018     16.37984629
  H     23.86009429     16.16237205     17.31323873
  H     24.94238458     16.37635633     16.19908827
  O     17.40151858      7.34945440      9.67993969
  H     16.71745358      7.76090235     10.21319916
  H     18.03736690      6.91551738     10.25352105
  O     43.74924081     -0.01780756      9.01581992
  H     44.46201895     -0.30080045      8.43835792
  H     42.99052975      0.23853322      8.48643638
  O     37.52424947     37.72296959      1.29702583
  H     37.20068537     38.43638886      0.74210311
  H     37.73209830     36.96126348      0.75094647
  O     43.04013504     31.24073174      4.18516416
  H     42.75695479     30.87101820      3.34568763
  H     42.60307716     32.08346782      4.32790979
  O     19.97916255     15.59347365     17.87556068
  H     19.39689602     15.05067769     17.33896191
  H     20.89035208     15.33116284     17.72547177
  O     20.99587410      3.60957147     23.99490680
  H     21.23286884      3.77392913     23.07925399
  H     20.62826430      2.72657402     24.07723866
  O     17.42278943      9.95151371     16.19053417
  H     17.47777123      9.26035985     15.52654370
  H     16.90336901     10.68317309     15.84924691
  O      2.71070121     16.23274349     -0.30301992
  H      2.94013126     15.64725234      0.42235031
  H      2.06622532     16.87775113     -0.00266018
  O     21.51578828     33.56578880     13.54662573
  H     21.61670260     33.02315154     14.33209444
  H     20.60862551     33.87361256     13.48417379
  O     43.04615126     49.62871398     10.58378109
  H     42.12441340     49.36054298     10.59292679
  H     43.55568279     49.00666879     10.05934101
  O     36.46263274     25.06731341      5.06066911
  H     36.56187981     24.27746157      5.59721741
  H     36.15001179     25.79030260      5.60944481
  O     32.33993349      8.73640120      6.65194918
  H     31.72191263      8.75237880      7.38638430
  H     31.88083344      8.46839017      5.85257615
  O     17.30349361     43.17912903     10.80398727
  H     17.67385305     42.34896643     11.11263585
  H     17.81253241     43.49844720     10.05531150
  O     19.44649895      7.78008855     18.24290479
  H     18.78109351      8.30506785     18.69371778
  H     20.25137527      7.76513230     18.76592526
  O     47.06464025     46.79261135     18.75210406
  H     47.33854642     46.35592389     17.94224019
  H     46.88672278     47.71871181     18.57242848
  O     32.16787567     12.31039093     18.43244551
  H     33.08881719     12.04461223     18.48562808
  H     31.60527976     11.54003618     18.54033158
  O     24.96281065     34.70938906     24.94956464
  H     25.27482460     34.37508676     24.10547385
  H     24.07002906     34.39442790     25.10875168
  O      8.41145261     27.69588103      1.37991288
  H      8.50818995     28.43938773      1.97944576
  H      9.24473455     27.22314285      1.31859536
  O     14.46879216     21.60954334      2.72523420
  H     13.97863162     21.15650441      3.41523302
  H     15.34476625     21.83290490      3.04831159
  O     11.49988641     26.54884700     25.86959634
  H     12.33395103     26.57234706     26.34434255
  H     10.78135649     26.40967987     26.49084288
  O     30.05042710     13.57123492     19.94253542
  H     30.10767334     14.52548262     20.03047970
  H     30.93332809     13.20352375     19.85962371
  O      4.26481178     36.72251038      6.93244188
  H      3.94369310     36.56693659      7.82366553
  H      3.95788057     37.57901287      6.62617937
  O     14.15933283      8.94921721      7.14887120
  H     14.53621913      9.79809676      6.90605391
  H     13.34565946      9.08826142      7.63897563
  O      4.50044270     11.95558936      1.20273616
  H      4.33374076     11.31522459      1.89825282
  H      5.29874253     12.44865376      1.40572599
  O     43.34076775     32.77924466     26.78161577
  H     42.57812357     32.79152838     26.19867241
  H     44.11017414     32.47252418     26.29629490
  O     33.35748329     47.80552143     11.43082800
  H     33.79870336     47.22646654     10.80503227
  H     33.83260214     47.79734427     12.26497141
  O     36.52773959     25.18495737     19.88317331
  H     37.16077608     24.85580358     19.24089410
  H     35.79961187     25.61180120     19.42575186
  O      9.57641716     45.09991548      6.53290395
  H      9.71326255     45.37293501      5.62277557
  H      8.68821904     44.74943313      6.63223284
  O      0.61840469     26.97210167      7.28270103
  H      1.17430030     27.59382528      6.80726456
  H      0.92474753     26.07734513      7.11788355
  O     38.81268347     39.88720677      5.91925679
  H     38.48146031     40.14042389      6.78399508
  H     39.74079001     40.12264100      5.85005437
  O     48.40783600      0.51639098     14.07960378
  H     49.33727437      0.64031935     13.87372498
  H     47.95369191      1.36083258     14.03194330
  O     22.62553997     43.20774113     13.69843067
  H     22.84658056     42.74182089     14.50815865
  H     23.39050633     43.70122542     13.39363611
  O     41.09989352     29.60660856     12.06914788
  H     40.29488302     30.06959632     11.82583650
  H     41.58179284     30.12209591     12.72002871
  O     21.35224455      7.14088043      5.14717433
  H     20.58232632      6.78950065      4.69400970
  H     22.06358559      7.27182588      4.51594758
  O     30.02360638     43.87831466      8.06110509
  H     30.32962851     43.03822147      8.41066751
  H     29.28390683     43.72821593      7.46788089
  O     42.67566672      9.64602386     18.63806151
  H     42.23555275      9.31829234     19.42577450
  H     42.50692930     10.58643570     18.54450270
  O      4.12682564     -0.11333636      3.56696150
  H      3.65555581     -0.23196969      2.73905396
  H      5.02903094      0.16016496      3.38579136
  O      9.49522435     23.79797075      7.75352844
  H     10.21461702     23.37034088      7.28320208
  H      8.65998463     23.40940110      7.48336507
  O      6.80899220      3.43738400      1.88841912
  H      6.48954678      2.54300215      2.02854669
  H      6.39553889      4.02829539      2.52204368
  O     49.76522362      4.00167701     24.17780522
  H     49.40747466      3.15128383     24.44322397
  H     49.38527295      4.69373808     24.72396360
  O      1.13229727     11.07812979      8.24168379
  H      0.41664259     10.83459509      8.83340099
  H      1.89835561     11.34167015      8.75675767
  O     43.54734936     46.39469625     24.92799557
  H     43.98824338     45.73366500     24.38924689
  H     43.99595848     47.23792914     24.83151678
  O      2.83400843     49.31888936      3.45260399
  H      3.08399907     48.64896319      2.81205454
  H      3.60102220     49.85162398      3.67505332
  O      2.90474411     34.95625309      6.14500048
  H      2.01836469     34.61514756      6.00507709
  H      3.16087557     35.49971118      5.39623484
  O      5.62816782     42.90671611     16.91703608
  H      6.57571102     42.81681856     17.04225712
  H      5.17493715     42.69177349     17.73556014
  O     27.62440730      1.22643802      1.30863292
  H     27.96472107      1.07954520      2.19418870
  H     28.32905081      1.09877861      0.66927339
  O     12.25744456      4.13899021     21.37022470
  H     12.97582294      3.61871069     21.73743271
  H     11.55180255      4.21242691     22.01696763
  O     21.15738963     18.96247168      1.48501586
  H     20.97255264     18.37874663      0.74562398
  H     21.00695455     19.87282076      1.21999916
  O     18.13594841      8.52918976     26.54363859
  H     18.95660955      8.85115948     26.16357176
  H     17.58542695      9.27423293     26.79550523
  O     37.49077518      2.65670634     21.43745941
  H     38.11233801      2.31443770     22.08407507
  H     37.24608399      3.55480466     21.67229048
  O     37.37261116      8.89210613      7.11610657
  H     37.69019500      8.16041915      6.58190186
  H     38.11946468      9.40511524      7.43333122
  O     20.64989627     16.29862272     20.07475119
  H     20.79121736     15.61238865     20.73103707
  H     19.70890888     16.46477394     19.98235793
  O     33.06943465      9.96852017     15.51021886
  H     33.18172407      9.82608571     16.45292959
  H     32.28783909     10.50474691     15.35800429
  O     17.81579968     42.59927894     25.67949761
  H     18.30533019     43.36839472     25.37879708
  H     17.12755765     42.87565825     26.28903627
  O     15.45923961     35.46286336      1.87115066
  H     14.86860282     34.85077126      2.31622531
  H     14.96896125     36.24334868      1.60269248
  O     32.24185953      8.16072536     22.59371742
  H     31.88004949      7.35460923     22.96904433
  H     33.07943136      8.36340851     23.01679303
  O     11.40785741      7.66757398      4.61719450
  H     10.78103423      7.06134132      5.01866017
  H     11.25413332      7.70698053      3.67040201
  O     44.02378212      5.13810253      8.44726651
  H     43.17195631      5.51101578      8.68586345
  H     44.20594164      4.37513903      9.00071443
  O     46.75696069     26.58244970     27.91082733
  H     46.97450527     26.22327460     27.04753849
  H     46.01025629     27.18039442     27.83023789
  O     21.41332360     44.53799099      6.40809713
  H     20.74033033     45.19631491      6.59595260
  H     22.23433322     44.78709449      6.83878339
  O     28.95264018     19.23864685     27.46887827
  H     29.88397320     19.34978049     27.26426122
  H     28.85663448     18.95354004     28.38052349
  O     38.62216429     13.08236169     25.62696725
  H     38.79555447     12.14577484     25.74672081
  H     38.19609123     13.22344213     24.77834598
  O     34.02254283      3.11260582     23.31473199
  H     34.11099389      2.18228618     23.53446313
  H     33.89796250      3.62144486     24.11919615
  O     37.35227660     27.10479854     11.95644711
  H     36.90634744     26.41909432     11.45389670
  H     37.48443907     27.87557603     11.39963910
  O     44.67009562      7.97501477     13.30479780
  H     45.35474834      8.64794738     13.30128130
  H     43.81415255      8.38799859     13.16912972
  O     22.58582138     23.42863501      3.70902679
  H     21.87236965     23.51245507      3.07219021
  H     23.36461839     23.88297526      3.37940555
  O     49.45208223     35.28795287     18.38068219
  H     49.17473898     34.68169491     19.07142962
  H     49.28977854     34.89103505     17.52177954
  O      0.55693662     48.00047458     16.25266360
  H     -0.10368398     48.68081405     16.40205783
  H      0.89123707     47.68762107     17.09644431
  O     39.12484958     40.16378825      3.26386225
  H     39.05365215     40.80460471      3.97511832
  H     39.92521707     39.64609009      3.37788199
  O     44.21491562      8.94236622     11.24435506
  H     44.44414560      9.41975315     10.44363330
  H     43.56440071      8.26673876     11.03951880
  O      2.43140677     39.18246455     19.58905127
  H      2.20873966     39.32302988     18.66587157
  H      2.05794316     38.34925131     19.88549795
  O      5.99804315     31.93765506      9.40458931
  H      6.38730115     32.52763304     10.05420781
  H      6.34457438     31.05101387      9.52861955
  O      4.80275293     30.12506500      4.26881813
  H      5.22847805     30.22359595      5.12359868
  H      5.43822492     29.79240348      3.63076510
  O     22.61964636     12.81704840     14.07754106
  H     22.22572460     13.61645210     14.43444354
  H     23.49261538     13.01680392     13.73167573
  O      4.97939419     32.68340866     13.91372784
  H      4.45604395     32.30378028     14.62336636
  H      5.90020811     32.43688339     14.02742489
  O      4.41969013     31.21824433     10.93659171
  H      4.66509664     30.37870391     10.54093084
  H      4.17451755     31.83844871     10.24605790
  O     44.39280466      7.86512221     27.25427293
  H     43.75822943      7.35924799     27.76711361
  H     44.97841015      8.34061482     27.84805150
  O     27.84651961     16.67597035     27.65112396
  H     28.80568440     16.71579999     27.64705912
  H     27.51005024     17.13388046     28.42488535
  O     19.77904094      9.66437690     15.24688803
  H     19.40448061     10.40751702     14.76829913
  H     20.01894944      8.97194688     14.62673919
  O     37.24016462     35.65355601     15.34154415
  H     36.93729852     36.56180222     15.41197812
  H     38.19626842     35.62728282     15.42385607
  O     40.24445667      1.76105706      0.10898049
  H     40.60757014      2.14824107      0.90887870
  H     40.68316523      2.13798879     -0.65721614
  O     20.94277880     26.37733996     24.98526002
  H     20.13752737     26.82165281     24.71002151
  H     20.85904132     25.43439195     24.82576994
  O     49.05794269      4.63467612     18.02984139
  H     49.46286306      4.23964235     17.25422046
  H     48.27313903      5.12194378     17.76858777
  O     26.53176246     21.74085547     14.72121234
  H     27.21830746     22.29890845     15.09381515
  H     26.24193435     21.10600331     15.38042581
  O     17.64743553     17.21875443     19.97497697
  H     18.18980454     17.96788246     19.71759970
  H     16.78144106     17.29517335     19.56777466
  O     42.48932201     24.88083791     17.37686146
  H     42.34209176     24.11379799     16.81867420
  H     42.76101339     25.62467086     16.83418629
  O      5.91003052      3.48055264     11.30194445
  H      6.70996688      2.96170036     11.41372158
  H      5.60273794      3.40445814     10.39564378
  O      8.26180728     36.31446404      4.24631821
  H      7.69036213     36.52181501      4.98932293
  H      8.14493625     36.97378159      3.55839269
  O     48.62472849     15.04501875     14.99677488
  H     47.94850915     15.00056612     15.67673913
  H     49.16210405     15.82928279     15.13003182
  O     15.40128152     43.35675868     28.35019074
  H     16.28877804     43.59062070     28.06866189
  H     14.85673395     44.14671116     28.38248653
  O     13.47305734     22.92827101      4.49152758
  H     12.63749835     22.60206902      4.14942609
  H     13.71482100     22.42983437      5.27556281
  O      7.61204804      8.27377193      4.26909956
  H      7.54508112      7.70454570      3.49897169
  H      6.80829235      8.20471796      4.78949205
  O     28.26934888     43.76257065     21.16932355
  H     27.88644176     42.88224011     21.16879261
  H     28.51558117     44.00438512     22.06514464
  O      4.16891060      0.75395624     20.15685797
  H      4.44911957      1.25507154     19.38746445
  H      4.93782688      0.50692229     20.67583964
  O     29.95994986      5.06194737     27.14183106
  H     30.38880297      4.55990848     26.44495090
  H     30.50277217      5.81973133     27.37141201
  O      4.87496469     45.50096078     24.38932327
  H      4.77217747     46.14417182     23.68411809
  H      4.91223774     44.61787199     24.01467022
  O     12.04088547     43.39637996      3.23514872
  H     12.25780046     42.73378306      2.57521445
  H     12.39022135     43.12609926      4.08750592
  O     43.07900878     27.52534266      1.96715468
  H     43.63802061     28.26962936      2.20198032
  H     42.93093301     26.97867122      2.74228300
  O     16.15697450     13.40398397      7.64186702
  H     15.73953765     14.02450076      7.03994893
  H     16.43908730     13.86666701      8.43429164
  O     39.93883430     16.30750897     10.12642515
  H     39.23142881     16.69134118      9.60311808
  H     40.57582458     15.88658420      9.54447522
  O     30.89428624     42.61921272     12.04504723
  H     31.10519679     41.86212894     11.49373889
  H     30.67782008     43.37070176     11.48826484
  O     24.51864337     40.98036632      3.54403483
  H     24.60988873     41.36519375      2.66928793
  H     24.60885599     40.02641119      3.48545762
  O     29.91313966     47.68192540     17.12042743
  H     29.58299784     46.80472083     17.32807743
  H     30.71497484     47.60715088     16.59786728
  O     14.30629114     49.77477400     17.05948653
  H     13.56312868     50.00768826     17.62078904
  H     13.98434806     49.51292109     16.19381586
  O     16.16095190      5.73114959     22.08148228
  H     16.37029978      5.19460906     21.31343428
  H     15.71779203      5.19015728     22.73915747
  O     44.47279484     45.89440298      0.79754481
  H     44.42943033     45.81864608     -0.15847842
  H     45.25584559     45.44199687      1.11966319
  O     12.53076114     12.07820245     26.58882709
  H     12.35055821     12.26000375     27.51407040
  H     11.70213812     11.97331685     26.11555876
  O     24.98731270      2.28457337      2.55162581
  H     25.85519296      2.00580096      2.85274005
  H     24.40738716      2.39963068      3.30796448
  O     25.72526633      1.83333010     10.38484622
  H     25.77277906      2.05597756      9.45223126
  H     24.80947342      1.68774651     10.63329897
  O     26.38855549     38.95059184      4.49870085
  H     27.04476773     38.62604665      5.11971287
  H     26.30625441     39.90288329      4.58796191
  O     24.24857287     29.63411403     21.36133797
  H     23.60508392     30.34220823     21.43959757
  H     24.65887200     29.47816078     22.21511382
  O      3.07265602      9.36485880     19.14671924
  H      3.73885416      9.30066434     18.45849027
  H      2.22307118      9.57424394     18.75179716
  O     36.99400864     34.82063566      7.91106395
  H     37.77265074     34.91359408      8.46484660
  H     36.21578630     34.72746082      8.46539998
  O     20.50135935     10.46175020     27.37796219
  H     20.71890423     10.69870483     26.47345861
  H     21.18827209      9.89373447     27.73448569
  O     21.38195916     21.92888651     23.16064729
  H     20.64588191     21.90400439     22.54487853
  H     22.20084868     22.05666892     22.67619748
  O     33.93062472     22.60633655      3.10986406
  H     34.61048433     22.27601211      2.51802230
  H     33.21534618     22.98741067      2.59531657
  O     29.88448300     33.72042356     11.96963479
  H     29.84847124     33.31663875     12.83984222
  H     30.75033508     33.57132571     11.58276269
  O     17.76510187     17.43057927     16.74047438
  H     17.22375573     17.80133192     16.03969849
  H     18.33271642     16.74602269     16.37881707
  O      4.31334883      6.77612988     10.68592081
  H      4.73627264      6.16751022     10.07574251
  H      4.93085555      7.01312752     11.38170639
  O     39.38301823     27.41394877     19.04588491
  H     40.15134829     27.18566375     18.51753382
  H     38.58467473     27.16176720     18.57614868
  O      9.51914758     12.53555794     11.21084696
  H      9.76550926     11.88990753     11.87721132
  H      9.07558373     13.27617664     11.63076964
  O     16.48055190     28.17032646     18.96809618
  H     17.37724657     28.25479717     19.30036620
  H     16.28058507     28.91266420     18.39316319
  O     13.57390276     29.32406688      6.90556739
  H     14.34112458     29.27379889      7.48040982
  H     12.77498831     29.21995700      7.42757969
  O      4.19413420     -0.19047176     12.38476828
  H      3.46748264     -0.58168006     12.87521051
  H      4.85239835      0.14302711     12.99882595
  O     41.03468541     41.43236159     14.67670256
  H     40.92346461     41.90256671     13.84716227
  H     41.29161855     40.52468898     14.49861328
  O      1.42336876     13.97952983     10.75743006
  H      2.08841045     14.67156401     10.77763552
  H      0.65712818     14.28567032     10.26676380
  O     38.01528549      4.35943135     12.08492485
  H     38.76087726      4.77532528     11.64592012
  H     37.45822868      3.92924988     11.43206069
  O     30.84834144     37.98353047     24.73538827
  H     30.48717247     37.38958930     24.07327736
  H     30.89898727     37.52947125     25.57970173
  O     20.66207135     28.96144241      6.82598294
  H     20.71538480     28.17644949      7.37602276
  H     21.31770024     28.90793807      6.12677765
  O     26.60249493     42.86224269     25.69624284